1.01397246418 	-0.00815782530096 	-1.44452847547e-21
1.0149895799 	-0.0126715690352 	-1.1095106847e-21
1.01615357691 	-0.0176496543575 	4.25402960694e-22
1.01742661425 	-0.0234408878277 	-1.35275202856e-23
1.0184694475 	-0.0301061224699 	-4.56200728207e-22
1.01878945763 	-0.0379616123858 	-2.46716333239e-22
1.01734438187 	-0.0467151128419 	-2.80475236416e-22
1.01236734682 	-0.0551902478442 	-1.44373250957e-21
1.00222713943 	-0.0650400422491 	2.07512671568e-20
0.982827705813 	-0.0690526348951 	1.5900875354e-21
0.955481577656 	-0.0617102101529 	5.56123513326e-23
0.927802741624 	-0.0349792284921 	1.99129898979e-21
0.916401981987 	0.0094164705826 	-3.67765021821e-24
0.932204376955 	0.0525064664562 	2.26237110692e-22
0.962851342076 	0.0759423603495 	-1.5144772018e-21
0.991222521841 	0.0794966990934 	1.77559106632e-21
1.01023695471 	0.0719603041222 	1.77528337954e-20
1.01921001752 	0.0591165617726 	-1.39497719407e-21
1.02279121315 	0.0488410226246 	-1.39318401222e-21
1.0228196189 	0.0387193371215 	2.92603637314e-22
1.02130859081 	0.0301055247033 	6.70695318249e-22
1.0192697759 	0.0230206562328 	-9.92185994204e-24
1.0172133479 	0.0171003061181 	-3.56717507851e-22
1.01550787316 	0.0121241842727 	8.18650329764e-22
1.01412077304 	0.00769218767938 	8.26120895003e-22
1.01851590782 	-0.00882321206138 	4.8545488612e-22
1.02001186884 	-0.0137159748558 	9.84595543627e-22
1.02193360472 	-0.0194145338354 	5.78142623896e-22
1.0241583226 	-0.0260599673761 	-1.33859629535e-22
1.02643114413 	-0.0340119540255 	6.87494479879e-22
1.02813260387 	-0.0437742526515 	-2.96708969194e-22
1.02825196603 	-0.0556672435031 	5.17137368266e-22
1.02493078376 	-0.0704357890182 	1.80638103835e-22
1.01394580306 	-0.0878739301863 	-6.05382517786e-22
0.989403488895 	-0.104253747463 	-2.60942938845e-21
0.942717901254 	-0.109863397527 	-3.75802877443e-21
0.878121027402 	-0.0766398790891 	1.00689419639e-20
0.844879923338 	0.0119349054258 	1.66416229723e-22
0.886336348203 	0.0974466126493 	9.57614077741e-21
0.954926317561 	0.124643736658 	-8.14235990776e-21
1.00230403518 	0.113336982338 	-2.03371696588e-21
1.02562435917 	0.0925205190748 	-4.55868712992e-22
1.03417850095 	0.0719113132745 	-2.79967062157e-22
1.03527980212 	0.055294943045 	-5.83343745077e-22
1.03310720092 	0.0424484701717 	2.97228069051e-22
1.02965416411 	0.032323162605 	-6.98376713391e-22
1.02605519749 	0.0243942663326 	1.21534516896e-22
1.02289242207 	0.0179850045132 	-4.77011695306e-22
1.02032092429 	0.0126061778016 	-7.15782667897e-22
1.01841804333 	0.00802865309372 	-8.86155928012e-23
1.02329297225 	-0.00913200569038 	1.00760675601e-23
1.02545633734 	-0.0141442285098 	3.94768600322e-22
1.02830335404 	-0.0202681857134 	-3.5158305402e-22
1.03178935877 	-0.0274745810181 	-1.46684009704e-24
1.03584630013 	-0.0363515687059 	1.82118021412e-22
1.03998944317 	-0.0476848873542 	1.3137379325e-22
1.04334458687 	-0.0623976157882 	-3.05807933043e-22
1.04416312423 	-0.0821768972487 	-8.67595919571e-22
1.03876280229 	-0.109359009476 	-6.0598323746e-23
1.01779866652 	-0.147863853988 	8.92311171839e-22
0.95522543102 	-0.193688521511 	1.40611073887e-20
0.801628210668 	-0.194498348496 	-2.0443071339e-21
0.667676999854 	0.0178444501215 	-2.64830428614e-21
0.819063672447 	0.220346702403 	-3.6889214389e-21
0.975240583338 	0.207418384127 	1.10071770298e-20
1.03638432427 	0.153429594221 	-6.13587820273e-22
1.05425266334 	0.109546753765 	-1.91891690851e-23
1.05589181645 	0.0792462044896 	6.17622116965e-22
1.05144443473 	0.0580820398607 	1.67064241285e-22
1.04515738925 	0.0432552324254 	-5.00907576807e-23
1.03881457737 	0.032405350081 	-1.29619845061e-22
1.03325897842 	0.0242476543458 	6.78569244759e-25
1.02877696066 	0.0177795672927 	2.58298865588e-22
1.02527369822 	0.0123723237313 	-3.09616866546e-22
1.02273774934 	0.00796093672381 	-3.3613170686e-22
1.02818900775 	-0.00892813575209 	3.09501448739e-23
1.03105080982 	-0.0139167398408 	6.99838298974e-24
1.03492018717 	-0.0199695961068 	6.3530974647e-23
1.03994448264 	-0.0272838999721 	-5.98832067987e-24
1.04611069875 	-0.0363940272375 	-1.70089276086e-23
1.05332806614 	-0.0484080839639 	-2.39885956972e-23
1.06130714785 	-0.0644781200092 	-1.4010814359e-22
1.06949492437 	-0.086890182267 	-3.26142205314e-22
1.07677845095 	-0.120329689184 	3.63179453212e-22
1.07932303235 	-0.176873190667 	-1.02421235535e-21
1.05978499585 	-0.292068448812 	7.44443097344e-22
0.846658053315 	-0.571910699398 	-1.37078209692e-21
0.889073447548 	0.595136374414 	6.7608942603e-22
1.09049252288 	0.30031982421 	-1.26238594604e-21
1.10531253536 	0.176066215754 	-1.35817915618e-21
1.09650057939 	0.113254019446 	-4.30950649713e-22
1.08286123776 	0.0773635848596 	7.12804142367e-22
1.06938594338 	0.054920759285 	2.68937115123e-22
1.05762627491 	0.0401865392418 	-2.02359383663e-23
1.04794641801 	0.0298727677838 	-3.73270715541e-23
1.04029489193 	0.022381574812 	-2.89385434503e-23
1.03441453637 	0.0164455988606 	-4.74780665737e-23
1.03004235967 	0.0115124497169 	-1.05204911378e-23
1.02692406388 	0.00742250510153 	-3.20874876947e-24
1.03290933977 	-0.00805479871677 	-3.5784269406e-24
1.03644147459 	-0.0128667579213 	-1.47463456858e-23
1.04135181856 	-0.0183796187025 	-1.93987524597e-23
1.04797501648 	-0.0252235476855 	7.99274987833e-25
1.05635411465 	-0.0338386088327 	-5.72580893283e-23
1.06687074306 	-0.0452269842036 	-4.36040400258e-24
1.07978172789 	-0.0604655565278 	-5.73389061818e-24
1.09578219205 	-0.0813223109265 	2.87576742096e-23
1.11742382319 	-0.111281552416 	-4.90907302213e-22
1.15289411369 	-0.158428727829 	-2.36520612945e-22
1.23534928601 	-0.245210926411 	2.23531346304e-22
0.0402158651082 	0.0015336746095 	-1.886004856e-21
1.27622355117 	0.248836577796 	-2.3353573166e-22
1.18839645306 	0.148093338177 	3.27904358111e-22
1.14121477561 	0.0933787893463 	9.35136504337e-22
1.10910272468 	0.0627996767836 	-2.80932770764e-22
1.08586991349 	0.0445807335535 	-3.3218781638e-24
1.06869308763 	0.032973993875 	6.30218307364e-24
1.05588406639 	0.024916915734 	7.56321856687e-23
1.04642900409 	0.0189322708564 	-2.2260411688e-25
1.03935666726 	0.0141251590237 	2.92477725772e-23
1.03430008977 	0.01009330631 	2.38180114505e-23
1.03075216076 	0.0063949455926 	8.03264850429e-25
1.03693423291 	-0.0069775683771 	-3.7095759144e-24
1.04114122492 	-0.0107780941238 	3.50785933884e-23
1.04708763531 	-0.0155129082284 	4.41601373732e-24
1.05514516919 	-0.0212417770659 	1.19983637133e-23
1.06553040291 	-0.0285174662194 	1.30545230864e-22
1.07899740776 	-0.0381284895038 	2.1232757953e-22
1.09585960939 	-0.0507335656679 	-1.17675871941e-21
1.11736040004 	-0.0669928497743 	3.93373893291e-22
1.14607251568 	-0.0866005419254 	1.54489229815e-21
1.19085430416 	-0.10548495491 	-9.57337525915e-21
1.26438635774 	-0.104909965083 	2.80882812245e-20
0.135384443149 	0.000790058114017 	1.73711926558e-21
-0.00049474758267 	0.0127711318416 	-4.33563495772e-22
0.129215523986 	0.0464517785786 	6.91041762812e-23
1.33756306048 	0.112169420468 	-3.33344495211e-20
1.24129746072 	0.0771197071964 	1.09079523007e-20
1.17145635882 	0.0513641471496 	1.0511900438e-21
1.12670544277 	0.036894199924 	2.88272221218e-22
1.09669807717 	0.028239544756 	1.4468612833e-21
1.07611664312 	0.0224862574233 	-2.39914330146e-22
1.06139056164 	0.0180959222553 	-1.94827263402e-22
1.05092756136 	0.0143824995164 	-8.89786844275e-24
1.04319817654 	0.011150298256 	-1.74542666697e-23
1.03764878506 	0.00811674154152 	-4.21770240364e-23
1.03382251935 	0.00541382922665 	-8.89604939847e-23
1.04027904469 	-0.00525185270912 	1.01215068382e-23
1.04487174365 	-0.00795267498851 	-3.75151853857e-22
1.0516385259 	-0.0115345633846 	4.39909200166e-22
1.06083740533 	-0.015614391369 	-3.4166519068e-24
1.07284949155 	-0.0209541682831 	-3.80131188496e-22
1.08846767434 	-0.0279220303662 	-3.64616829011e-22
1.10824199435 	-0.0370393647279 	1.03391007263e-21
1.13221505732 	-0.048430990627 	3.46231207883e-21
1.16028946913 	-0.0602444329001 	8.25302093718e-22
1.19101709078 	-0.0640156848094 	2.90943099211e-21
1.1758469231 	-0.0150918106044 	2.69814263781e-21
0.127228627915 	0.15705071241 	-3.97098000992e-21
-0.152012380674 	0.262174859491 	-3.42839050137e-21
0.431719997491 	0.128046490748 	-7.35097805039e-21
1.34064880405 	-0.0140605412748 	-2.67523186147e-21
1.25579829826 	-0.00897735152339 	-3.80449907868e-21
1.17702392019 	-0.00110912816241 	-1.27150382542e-22
1.12977910778 	0.00591328146468 	-4.66261725922e-21
1.09900801687 	0.00975816481642 	-1.33710013676e-21
1.07845280798 	0.0110415630981 	3.35647042157e-22
1.06394051749 	0.0107743605566 	3.7816290868e-22
1.05346684945 	0.00958811215942 	4.01448724469e-24
1.0457219635 	0.00798226952359 	-4.17582306831e-22
1.04006144115 	0.00602028630346 	3.42410446695e-22
1.03628338289 	0.00415830178232 	2.81140189069e-22
1.04261543924 	-0.00326343492707 	-3.12452172794e-22
1.04743710736 	-0.0047320520916 	-8.52001257643e-22
1.05460332557 	-0.00675217670868 	-5.44721019166e-22
1.0644709176 	-0.00881862946017 	9.55178637766e-23
1.07745494333 	-0.0116563457058 	-8.22303712266e-22
1.09492146935 	-0.0152743345532 	5.13719057649e-22
1.11647276541 	-0.0205045598105 	-1.24229351039e-21
1.14211163125 	-0.0277695339812 	-8.79942451345e-23
1.1710687254 	-0.0385464374677 	-2.14777870198e-21
1.18906912021 	-0.0511633767649 	-2.27126648436e-21
1.05240507503 	-0.0214055274255 	2.7019050201e-21
0.0306571839605 	0.0693920371505 	6.36020646366e-21
-0.113400491197 	0.011546424006 	6.48545608316e-22
0.709849277042 	-0.142900470378 	1.59616047665e-20
1.29904113703 	-0.185716935576 	-2.73909136228e-21
1.21547053127 	-0.10027546065 	-2.75258839726e-21
1.15761997565 	-0.0510365481966 	-2.10326480549e-21
1.11655736148 	-0.021190534429 	3.0919001481e-22
1.09258018586 	-0.00608123146141 	1.76335957327e-21
1.07587491545 	0.00137934427209 	-6.20895582532e-22
1.06342285434 	0.00452632107929 	8.18898592349e-22
1.05414850813 	0.00539811128599 	-8.33983223877e-23
1.04698063173 	0.00509499504168 	5.12577677844e-22
1.04165516942 	0.00406233001501 	6.0816588816e-22
1.03807622224 	0.00287591260265 	-1.19733269507e-23
1.04369531488 	-0.00118564327592 	9.32683190431e-22
1.04862529614 	-0.00145175948653 	8.0936959303e-22
1.05569654729 	-0.00163140639493 	-3.57090764469e-22
1.06569525211 	-0.00146714491943 	-1.21156647022e-22
1.07898133023 	-0.00132337266478 	4.33015143087e-22
1.09682043276 	-0.00109848725946 	2.04945220969e-22
1.12090811793 	-0.000210350350303 	-2.42639609051e-22
1.14914314498 	-0.00489529115486 	6.57632860472e-22
1.18460839788 	-0.0134570684141 	2.30742696219e-20
1.21914879455 	-0.043831559785 	1.26982184426e-21
1.01569518528 	-0.0736639019192 	2.3325300984e-22
0.136557803792 	-0.238698929729 	1.911816383e-21
0.0317708646146 	-0.414780130163 	-2.6383548523e-22
0.769550753835 	-0.43847474443 	2.25349135441e-21
1.15589794176 	-0.299694205554 	-2.00455958203e-21
1.12441696109 	-0.151573482958 	2.74832204464e-21
1.10675616311 	-0.0745143923274 	2.47728065714e-20
1.09043610276 	-0.0342773453418 	5.48169283381e-22
1.08031981541 	-0.0150493556839 	2.52788035142e-21
1.06995165575 	-0.0043700827059 	-2.43226775502e-22
1.06091918055 	0.000465279622031 	-6.40567888956e-22
1.05353341127 	0.00240395103967 	1.33449493861e-22
1.04729475312 	0.00283467508037 	2.55906324263e-22
1.04261485781 	0.00247126792145 	-5.24968798429e-22
1.0391739849 	0.00183097737708 	-4.1856291248e-22
1.04368693287 	0.000858947266036 	-1.27123445899e-21
1.04830654639 	0.00174568118653 	-4.67266588649e-22
1.05484043919 	0.00320171247074 	-1.25126653063e-22
1.06434373508 	0.0056805301537 	-3.62592827105e-22
1.07749026142 	0.00920584833901 	1.83640992581e-22
1.09396566004 	0.0153314148994 	-1.00122254124e-21
1.11665654235 	0.0188944092942 	-1.02016467302e-21
1.15101333937 	0.0264687675154 	-1.22518739708e-21
1.19637128588 	0.0317828644714 	3.58483584325e-21
1.26584460269 	0.0144895149739 	4.88436753974e-22
1.13184341921 	-0.0303560090777 	-5.30342344581e-21
0.411834995381 	-0.327986020316 	-3.72268279571e-21
0.133257366507 	-0.548762319981 	-8.3067792968e-22
0.627729005216 	-0.445073551895 	1.83575873586e-21
0.971767204731 	-0.267505384083 	-1.57763213195e-21
1.01797299867 	-0.131244689437 	7.48648996887e-22
1.05283765031 	-0.0648596850552 	2.14017641146e-21
1.0640824497 	-0.0304239203428 	-6.63701758558e-22
1.0653095996 	-0.0126931133462 	8.33182284747e-22
1.06361318462 	-0.00526838545192 	9.1513032809e-22
1.05814526633 	-0.0008482691234 	-1.22455806517e-21
1.05246417918 	0.000805351359824 	2.32554355644e-22
1.04714992604 	0.00132148558726 	3.60094049234e-23
1.04304648854 	0.00120165630407 	5.52786732128e-22
1.03982237113 	0.000927339974363 	2.27794201029e-22
1.04250467893 	0.00248975630499 	1.55645999265e-21
1.04655366625 	0.00470987826242 	-3.09004064768e-21
1.05220222971 	0.00722984438338 	1.75609206437e-21
1.06010986542 	0.0121444579514 	7.59909801652e-24
1.07096695219 	0.0177428454017 	2.63007325392e-21
1.08536844255 	0.0259856666589 	-6.45645266676e-22
1.10529133162 	0.0399033575419 	-2.33616025222e-21
1.1369901511 	0.0584763758947 	1.33551338423e-22
1.18150255297 	0.0869653872917 	1.64630694635e-21
1.26298106439 	0.123586656167 	1.50055679811e-21
1.22060111115 	0.148711803492 	-1.07857068906e-20
0.759088865786 	0.00754690631235 	1.83370676415e-22
0.287010841008 	-0.279378127572 	-5.29785506158e-22
0.394266834811 	-0.346404058389 	5.75543589282e-23
0.830016227658 	-0.125711692394 	1.38915073632e-21
0.953725677094 	-0.0491757217033 	-3.45816534964e-23
1.01569410762 	-0.0239358267789 	1.60136554353e-22
1.04868125309 	-0.00839699868491 	5.78203230997e-23
1.05828143746 	-0.00377010474165 	-1.02610120424e-21
1.05916537602 	-0.00114013016882 	-4.32049462932e-22
1.0561239997 	-0.000255419221276 	1.11643082116e-21
1.05169901368 	-0.000310103776596 	-1.33528724928e-24
1.04701238833 	0.000270311349303 	-1.19531700172e-21
1.04316044269 	0.000132859841472 	1.91197586459e-21
1.04000372115 	0.000196383235275 	-3.48929601582e-23
1.0405893655 	0.00355816692308 	-1.2252095357e-21
1.04390052364 	0.00683981316556 	7.69364275012e-23
1.04779197843 	0.0100883793665 	3.6769014042e-21
1.05373171446 	0.0149251993948 	-1.82907574703e-21
1.06162754188 	0.0230396830768 	2.75003497868e-21
1.07191999487 	0.0354875094661 	-3.06967461763e-21
1.08639105808 	0.0546920020113 	3.48337760198e-22
1.10427515348 	0.0831515153147 	-1.69076150951e-23
1.1320035281 	0.128863445741 	3.22111463093e-21
1.19059844746 	0.21166772322 	-4.01539703871e-21
1.16567275576 	0.303741213578 	5.00947280653e-21
0.91934930978 	0.333041127633 	4.25592176288e-21
0.52579539725 	0.173120169292 	-3.1857317929e-22
0.412182219797 	-0.00221596763375 	2.6292991235e-22
0.669235673821 	0.00968441311131 	-7.31071970458e-22
0.93309689404 	0.0638749561998 	1.54815876656e-21
1.0185906676 	0.0353723593017 	-1.23928864486e-21
1.05122205281 	0.0177757923763 	-2.07067566365e-24
1.06055164095 	0.00845933745792 	1.35058392404e-22
1.06089847964 	0.00291595109889 	-1.0947983833e-21
1.05685408583 	0.00107587592381 	1.04027605616e-21
1.05143443404 	-0.000175447369069 	-1.74805040294e-22
1.04664784547 	-0.00148571473535 	-1.88796378995e-21
1.04318706296 	-0.000992568125603 	2.61497953626e-23
1.03994023709 	-0.000594658936576 	3.72544432697e-22
1.03816347075 	0.00409029372167 	1.05127001623e-21
1.04076641787 	0.00710131927351 	-6.03755518314e-22
1.04311645527 	0.0104609111635 	-4.21352654306e-22
1.04668040936 	0.0159919944295 	3.23912946615e-22
1.05163208412 	0.0247294928225 	2.09601360559e-22
1.05597213499 	0.0376971061666 	1.13228642773e-21
1.06107698645 	0.0586875401227 	1.73879521847e-22
1.06531851867 	0.0895325745531 	-5.94373250454e-23
1.06779734969 	0.140042908416 	-1.72560942328e-22
1.07876716695 	0.226815963521 	1.35919017645e-22
1.06104610387 	0.347539433335 	-1.42815177928e-21
0.913959538204 	0.437836121457 	-1.36466037084e-21
0.65050053493 	0.418374944114 	-4.80488367585e-22
0.526290543841 	0.336021269272 	-1.71777668224e-22
0.666767272414 	0.242652611008 	-1.25807173585e-22
0.971401237614 	0.147440722148 	-1.01370836921e-22
1.07119227388 	0.0875747263632 	6.33600809425e-23
1.07958967328 	0.0346510766038 	8.99044717213e-23
1.07383924658 	0.0157456164328 	7.11096067127e-23
1.067604198 	0.00429900004259 	1.45392059274e-22
1.05932170197 	0.000401582567933 	2.11478142399e-22
1.05263743707 	-0.00165539283945 	1.24278019571e-22
1.04652015037 	-0.00172692969 	-1.35657255068e-22
1.04284073507 	-0.00179242061039 	-5.07283314367e-22
1.03922233093 	-0.00166418454606 	-3.19291425029e-22
1.03561525394 	0.00413200246057 	-2.96933139946e-21
1.03706174926 	0.00637702608116 	9.80135685646e-22
1.03920801746 	0.00956446344469 	-8.6336027021e-24
1.04094826504 	0.0144275350703 	8.40977918448e-23
1.04235817378 	0.0218096574739 	-5.07071070626e-22
1.0401627686 	0.0316928517925 	-2.25750696798e-22
1.03633115844 	0.0502903784142 	9.92674203755e-22
1.02548476532 	0.0765320591659 	3.60035333801e-23
0.996838363646 	0.12151175528 	3.63868845084e-23
0.967566001606 	0.192998661764 	-8.14258393468e-23
0.931900282532 	0.303916347604 	-4.74088535298e-22
0.833858809483 	0.411552883027 	5.68079041e-24
0.659161779715 	0.47765659532 	-3.54841820927e-22
0.616199858921 	0.455796612279 	6.42860089114e-22
0.801123796919 	0.320510441181 	1.50346661964e-22
1.09110510979 	0.148855413538 	1.5704542907e-23
1.16691252528 	0.0813513777004 	-1.66365396541e-23
1.12377509938 	0.0199849360345 	1.01255724706e-23
1.09039666013 	0.00910494318243 	-1.58867336979e-22
1.0754747387 	-0.00161134753538 	1.63669006115e-22
1.06201290953 	-0.00417130896086 	1.01106009232e-23
1.0532126749 	-0.00409558348384 	1.22866651711e-23
1.04642146937 	-0.00423721446821 	2.41899699987e-23
1.04134071736 	-0.0030502011189 	2.78746758016e-22
1.03836156089 	-0.00269313403427 	1.38302450585e-22
1.03367733801 	0.00289543554356 	-6.55037836884e-22
1.03468440493 	0.00479596023133 	-6.91841349235e-22
1.03541059092 	0.00701254570895 	2.19910827342e-22
1.03558299481 	0.0100207966996 	1.85112218527e-23
1.03358435756 	0.0145065501134 	1.81814001295e-22
1.02796463959 	0.0205979061728 	2.84499540313e-22
1.01775847995 	0.0311659919185 	1.34791514394e-23
0.994308141685 	0.049547884639 	-7.91016242352e-23
0.951574211001 	0.0793109215993 	3.85747580785e-24
0.89256891143 	0.127781949898 	-2.40233541024e-23
0.813458281449 	0.218028332201 	-1.72526862599e-24
0.707708419304 	0.323834888825 	0
0.647480735823 	0.360302351095 	-1.28231082663e-35
0.740529523532 	0.286577810496 	-2.03288918958e-24
0.981901082224 	0.134200532711 	-5.77498466662e-22
1.18227691735 	0.0251606405973 	1.85796876434e-22
1.20639659986 	-0.00154565383001 	5.19323094958e-22
1.14619857637 	-0.0114506669863 	-7.67115749183e-23
1.10036163625 	-0.011896605431 	-7.32341612388e-24
1.07770192877 	-0.0111090665806 	-4.8013589092e-23
1.06272720996 	-0.0112953282138 	2.48009135261e-23
1.05224424179 	-0.00796481573741 	2.63094187071e-23
1.04554011812 	-0.00648363633555 	3.2991294248e-23
1.04032159195 	-0.00456645798122 	-8.62005928865e-23
1.03692653246 	-0.00255930452822 	-7.80536752294e-23
1.03267677972 	0.00212180031345 	0
1.03366997602 	0.00319628832441 	0
1.03437155339 	0.00401437439902 	0
1.03401960751 	0.00475154718939 	0
1.03136206112 	0.00545245701638 	0
1.02461211359 	0.00544915624467 	0
1.00968055609 	0.00556287251985 	0
0.978881286426 	0.00766254415537 	0
0.924112148011 	0.010981713932 	0
0.835758831864 	0.0264773638733 	0
0.740934523675 	0.0752159565411 	0
0.68022417352 	0.1081268177 	0
0.70746425205 	0.0800937313633 	0
0.865866050445 	-0.0112818243154 	0
1.07639207416 	-0.105914414743 	0
1.20024232852 	-0.118950050869 	0
1.19204110394 	-0.0816840796909 	0
1.13125929467 	-0.0523670961493 	0
1.09212282281 	-0.0343462987792 	0
1.07272646595 	-0.023874678662 	0
1.05854990048 	-0.0179545305058 	0
1.04889211178 	-0.01222841294 	0
1.04297179779 	-0.00895645958904 	0
1.03823477936 	-0.00609078173475 	0
1.03521773376 	-0.0036676217655 	0
1.03195578467 	0.00132593095108 	0
1.03331418712 	0.00163156490661 	0
1.03460751701 	0.00120039864396 	0
1.03528155386 	-0.000402294700207 	0
1.0342205111 	-0.0042849129078 	0
1.03032717523 	-0.0122124346109 	0
1.01864745104 	-0.02618487015 	0
0.991717916563 	-0.0521234184132 	0
0.933829319943 	-0.0875704127862 	0
0.829178657286 	-0.11813911001 	0
0.73761842887 	-0.128935403085 	0
0.710494941098 	-0.152296482048 	0
0.773031330905 	-0.196695348562 	0
0.928149645933 	-0.238887654909 	0
1.07946500233 	-0.248327109516 	0
1.14684796995 	-0.195613738714 	0
1.13447244866 	-0.123420852255 	0
1.09677374146 	-0.0762455306659 	0
1.07325391648 	-0.0501878713966 	0
1.06088089552 	-0.0334774006144 	0
1.05079761799 	-0.0227854576197 	0
1.04359335528 	-0.015546263741 	0
1.03909421919 	-0.0106945507662 	0
1.03533497697 	-0.00703795514046 	0
1.03299904624 	-0.00434728144038 	0
1.03163142924 	0.000828807377646 	0
1.03360239685 	0.00067674544994 	0
1.03607400954 	-0.000534245565093 	0
1.03916335655 	-0.00353564808075 	0
1.04226744119 	-0.00980764762501 	0
1.04578846275 	-0.0225910620393 	0
1.0487629638 	-0.0444808492267 	0
1.03909808345 	-0.0885413186558 	0
0.987836707609 	-0.153424944876 	0
0.874509448794 	-0.219190504791 	0
0.775566375623 	-0.267502741696 	0
0.74914623164 	-0.305547464622 	0
0.797611500694 	-0.335821454605 	0
0.919282599862 	-0.337722755786 	0
1.02499333641 	-0.291430817466 	0
1.06514618407 	-0.209853625046 	0
1.06815826881 	-0.133660290092 	0
1.0589539522 	-0.0839762608665 	0
1.05155188981 	-0.0558571161413 	0
1.04632246067 	-0.0367607246915 	0
1.0414568803 	-0.024274741548 	0
1.03748124032 	-0.0164306527829 	0
1.03461895028 	-0.0109486536329 	0
1.03214888865 	-0.00713035471522 	0
1.03057187508 	-0.00440955871685 	0
1.0316471928 	0.000752890979308 	0
1.03439194391 	0.000584369307015 	0
1.03843491877 	-0.00051881198028 	0
1.04419825513 	-0.00329636099479 	0
1.05248151172 	-0.00824093583079 	0
1.06456646866 	-0.0191647682322 	0
1.0846486871 	-0.0369389029424 	0
1.10137643122 	-0.0726274479729 	0
1.06642183712 	-0.141175463925 	0
0.942967456883 	-0.229911778277 	0
0.82167072419 	-0.303255589133 	0
0.779325737072 	-0.347320523203 	0
0.802415041946 	-0.369234914014 	0
0.878361149485 	-0.353264288372 	0
0.944622070568 	-0.282801991095 	0
0.980263209803 	-0.196052113097 	0
1.00535676143 	-0.128619117897 	0
1.01893134367 	-0.0814751258959 	0
1.02656191171 	-0.0523060251995 	0
1.02979408498 	-0.0332956473153 	0
1.03089972221 	-0.0215019499917 	0
1.03077330711 	-0.0142340256516 	0
1.0299522118 	-0.00942138579404 	0
1.02891972747 	-0.00619110862396 	0
1.02807122955 	-0.00383981989037 	0
1.03159898257 	0.00113047264329 	0
1.03492495711 	0.00142249940136 	0
1.04016565166 	0.00151890956537 	0
1.04742276456 	0.000664339263867 	0
1.0589763585 	-0.000329271125406 	0
1.07606373208 	-0.00426668085994 	0
1.10448637214 	-0.00945809671491 	0
1.14382453818 	-0.0185575994299 	0
1.14500227376 	-0.0520369004888 	0
1.03966721028 	-0.127795814571 	0
0.893431232799 	-0.224689004904 	0
0.81219946417 	-0.291509754679 	0
0.798690185826 	-0.314290831448 	0
0.825478777543 	-0.285596969657 	0
0.861682285357 	-0.214835829028 	0
0.906014220003 	-0.145609334661 	0
0.951573664891 	-0.094157718498 	0
0.981533139302 	-0.0584123501266 	0
1.00180111498 	-0.0354743545092 	0
1.01433549275 	-0.0214314186877 	0
1.02139471331 	-0.0136258547659 	0
1.02492196589 	-0.0089052889849 	0
1.02613078759 	-0.00602155357462 	0
1.02630292184 	-0.0040680207661 	0
1.02603052636 	-0.00256190219779 	0
1.03094583402 	0.00197370131217 	0
1.03426593123 	0.00304557836712 	0
1.03957572959 	0.00473550647715 	0
1.04664269423 	0.00644922258405 	0
1.05833670852 	0.0096054744947 	0
1.07516154773 	0.0132967529441 	0
1.10116233565 	0.0205616582978 	0
1.14448313219 	0.035089175585 	0
1.17592007046 	0.049973377195 	0
1.12144593636 	0.0340449305758 	0
0.990759149362 	-0.0321712134889 	0
0.871661702141 	-0.099865019524 	0
0.802703463915 	-0.126540315469 	0
0.784852338982 	-0.11216602781 	0
0.805464917421 	-0.0760493913511 	0
0.857476742527 	-0.042575050302 	0
0.917762511456 	-0.0179237181838 	0
0.960146394524 	-0.00581990723183 	0
0.988698884843 	-0.00201259695229 	0
1.00722856444 	-0.00100739476499 	0
1.01753820322 	-0.00136468539302 	0
1.02262482681 	-0.00148582014209 	0
1.0246109498 	-0.00149592302502 	0
1.02514697903 	-0.0012813121205 	0
1.02502337421 	-0.000925678372784 	0
1.02939798717 	0.00292603695526 	0
1.03214870231 	0.00475855684975 	0
1.03663037179 	0.00763652444456 	0
1.04243321083 	0.0113916037911 	0
1.05203870884 	0.0174840062711 	0
1.06523971163 	0.0266707692998 	0
1.08350517035 	0.0415612937461 	0
1.11469749523 	0.0677955783016 	0
1.1463946484 	0.109366262074 	0
1.12531693959 	0.14716296149 	0
1.0358851044 	0.150985265308 	0
0.917920443551 	0.128956114582 	0
0.820514792787 	0.109909902215 	0
0.781553334213 	0.096124746896 	0
0.794092948214 	0.0870364524403 	0
0.845493792798 	0.083728062243 	0
0.914095700879 	0.0769234956054 	0
0.966156404455 	0.0596335304419 	0
0.997417227615 	0.0376175571805 	0
1.01440991101 	0.0214353659028 	0
1.02222281993 	0.0114175862244 	0
1.02532476187 	0.00577326935446 	0
1.0259830151 	0.00265980044241 	0
1.02573097442 	0.00109794118845 	0
1.02514725067 	0.000417422188102 	0
1.02736587856 	0.00336334726603 	0
1.0293634672 	0.00557891391336 	0
1.03259429914 	0.00901056521872 	0
1.03655890718 	0.0139562580898 	0
1.04280292687 	0.0218546491666 	0
1.05089503081 	0.034446084843 	0
1.06013017229 	0.0538935599924 	0
1.07462084393 	0.0848363614354 	0
1.091723563 	0.134233261939 	0
1.07578101681 	0.193542220427 	0
1.01120336541 	0.240914227705 	0
0.917578480705 	0.261610049911 	0
0.836242790657 	0.256834999194 	0
0.804938969381 	0.235010959792 	0
0.815686186767 	0.206971771085 	0
0.866194769424 	0.179586070764 	0
0.941259234364 	0.147109779402 	0
0.999925172587 	0.103985763926 	0
1.02748778111 	0.0622915498215 	0
1.03427010353 	0.0350216056452 	0
1.03375396667 	0.0192338062071 	0
1.0318238135 	0.0103434913163 	0
1.02952380212 	0.00525587870723 	0
1.02757520354 	0.00248323681183 	0
1.02603091075 	0.00115332439559 	0
1.02538601094 	0.00297842639946 	0
1.02659690563 	0.00505092039994 	0
1.0282909729 	0.00834941754326 	0
1.02985902056 	0.0134236368619 	0
1.03175217712 	0.0217913235214 	0
1.03347403575 	0.0355937094658 	0
1.0332170188 	0.0574615705596 	0
1.03287470117 	0.0894717041931 	0
1.03341365343 	0.13774083764 	0
1.01044388185 	0.200476101177 	0
0.960269951265 	0.263232006237 	0
0.897364266754 	0.30300693889 	0
0.845986774558 	0.306646653955 	0
0.831984866401 	0.288068975219 	0
0.848722180183 	0.257333426623 	0
0.905302086079 	0.216552081547 	0
0.989496320753 	0.164054374983 	0
1.05085259295 	0.103829021615 	0
1.06696823934 	0.0584745015022 	0
1.05778737119 	0.0333362231882 	0
1.04704046635 	0.0186692053033 	0
1.03931261784 	0.0105153252603 	0
1.03377255448 	0.00560197611441 	0
1.02986960474 	0.00280470204389 	0
1.02719442682 	0.00134545361531 	0
1.0237875401 	0.00191814080882 	0
1.02421203867 	0.00330578178477 	0
1.02435488003 	0.00562871436421 	0
1.02338410318 	0.00928359289495 	0
1.02068384733 	0.0156582434961 	0
1.01535537327 	0.0266259433874 	0
1.00601014656 	0.0454407653509 	0
0.994139246479 	0.0720553222315 	0
0.979323941432 	0.112166238466 	0
0.944603760153 	0.167610964019 	0
0.902850008595 	0.228173845272 	0
0.870027924307 	0.277069416043 	0
0.848739067533 	0.291279787782 	0
0.853206441206 	0.277689417108 	0
0.885603568765 	0.242915726598 	0
0.9604950075 	0.184418358624 	0
1.05507037407 	0.115770713077 	0
1.10438444092 	0.0595560786669 	0
1.09803682041 	0.0314844685968 	0
1.07462535909 	0.0188374949339 	0
1.05678616943 	0.0106996595041 	0
1.04492861117 	0.00637140743769 	0
1.03712752153 	0.00351010130052 	0
1.03175369934 	0.00191287516713 	0
1.0282394672 	0.000967729226943 	0
1.02289714526 	0.000495726807219 	0
1.02285643776 	0.000755516220636 	0
1.02212404656 	0.00125940336206 	0
1.01965875113 	0.00191197906832 	0
1.01403520859 	0.00333163495311 	0
1.00341970401 	0.00625290678321 	0
0.987213858351 	0.0135659232445 	0
0.966477717781 	0.0259711884573 	0
0.937678515085 	0.049628806898 	0
0.892265509345 	0.0863699819254 	0
0.851729699934 	0.125261528932 	0
0.836690009977 	0.163262520917 	0
0.845176205786 	0.182411840317 	0
0.880416679927 	0.173926843604 	0
0.943415273115 	0.134071792628 	0
1.03309139919 	0.0709195522851 	0
1.11444737353 	0.0197340573977 	0
1.13476315065 	-0.00171926213873 	0
1.10800167532 	-0.00203498382956 	0
1.07959110727 	-0.000457711510068 	0
1.06009968275 	-0.000513170507937 	0
1.04693746627 	-0.000161524866747 	0
1.03845565322 	-0.000239834180817 	0
1.03252678138 	-8.94879354341e-05 	0
1.02875373718 	-4.23129266449e-05 	0
1.02310712166 	-0.000946923469755 	0
1.02331606811 	-0.0019385011808 	0
1.0229888232 	-0.00360149979972 	0
1.02118294279 	-0.00656540806553 	0
1.0161904718 	-0.0114451027698 	0
1.00506834563 	-0.0192311002317 	0
0.985803339638 	-0.0291353281847 	0
0.958172680993 	-0.0368958432375 	0
0.918558194395 	-0.0351592242769 	0
0.867869407336 	-0.0250437577495 	0
0.828708617889 	-0.0180069333411 	0
0.818907714883 	-0.0128065284671 	0
0.844368145356 	-0.00941993160764 	0
0.907631904234 	-0.013776602604 	0
0.994844844167 	-0.0357132928203 	0
1.07876957357 	-0.0651546347649 	0
1.12836874376 	-0.0696436941396 	0
1.12653875273 	-0.0505010066575 	0
1.09772770495 	-0.029941867488 	0
1.07384269779 	-0.0179277466985 	0
1.05695570748 	-0.0111194667405 	0
1.04501900665 	-0.00669637937411 	0
1.03731143789 	-0.00416978079148 	0
1.03177645318 	-0.00239910127138 	0
1.02831342333 	-0.00133925378165 	0
1.02442835306 	-0.00206935496142 	0
1.02558160834 	-0.00399022068903 	0
1.02683231289 	-0.00725926386415 	0
1.02773890188 	-0.0128225187785 	0
1.02705044358 	-0.0222392829731 	0
1.02149632301 	-0.0380062108966 	0
1.00450078483 	-0.0628932846291 	0
0.972461256046 	-0.0907196677444 	0
0.925376891972 	-0.11053499083 	0
0.872772963449 	-0.124458912765 	0
0.837445479291 	-0.140577770448 	0
0.827954018453 	-0.157709579672 	0
0.84972701386 	-0.170478486434 	0
0.912417003547 	-0.171770079225 	0
0.998714058651 	-0.164901294072 	0
1.06995372971 	-0.151070738805 	0
1.09979943187 	-0.120414249413 	0