1.01417259445 	-0.00790192729792 	-1.4768209387e-21
1.01554899529 	-0.0123897265467 	-1.12989731855e-21
1.01721135741 	-0.0174660166815 	4.29631317628e-22
1.01919027605 	-0.0235286512143 	-1.36283087699e-23
1.0210986979 	-0.0307388864137 	-4.57736885275e-22
1.02240972255 	-0.0395073979202 	-2.487476335e-22
1.02208568126 	-0.0497254796468 	-2.8193269518e-22
1.01811410092 	-0.0601196986683 	-1.4530382286e-21
1.00870625459 	-0.0725869685076 	2.09161139305e-20
0.989194403962 	-0.0794456285894 	1.60107005715e-21
0.96074617255 	-0.0749285212718 	5.42483732004e-23
0.930804834907 	-0.050362286592 	1.99661838833e-21
0.916387447984 	-0.00683804532637 	-3.57067288312e-24
0.929208404906 	0.0371484501538 	2.278244443e-22
0.957609223807 	0.0627536233334 	-1.50685821374e-21
0.984883537198 	0.0691208153583 	1.76285644015e-21
1.00378846525 	0.0644243479999 	1.75908657286e-20
1.01350621226 	0.0541980889343 	-1.38346750448e-21
1.01805409733 	0.0458243646511 	-1.38353102766e-21
1.01919888427 	0.0371677461663 	2.88891562877e-22
1.01867217468 	0.0294655047442 	6.62200361293e-22
1.01749642991 	0.0229284523757 	-9.07402141748e-24
1.01614136405 	0.0172786684583 	-3.49695263158e-22
1.01493155239 	0.012400413116 	7.92582921925e-22
1.01390313819 	0.00794214046355 	7.95543426396e-22
1.01856456028 	-0.00824758200562 	4.99205289313e-22
1.02047542853 	-0.012923805426 	1.00558284933e-21
1.02303700488 	-0.0184559375061 	5.9018068736e-22
1.02616307751 	-0.0250872358592 	-1.34959657261e-22
1.02966151973 	-0.0332628609251 	6.89838759826e-22
1.03290290588 	-0.043701406954 	-2.95214295386e-22
1.03471249926 	-0.0568556421394 	5.12604367848e-22
1.03306578749 	-0.0737289790282 	1.81568413496e-22
1.02352489504 	-0.0942572754246 	-6.15308301581e-22
0.99926423485 	-0.114372023191 	-2.64584679526e-21
0.951312717922 	-0.124131948271 	-3.79923199426e-21
0.883329339427 	-0.0945126326834 	1.00934932495e-20
0.8448474957 	-0.00749564354048 	1.66465484044e-22
0.881123184633 	0.0796009232346 	9.55632699346e-21
0.94636502616 	0.110401233599 	-8.07225718416e-21
0.992479352918 	0.103231100136 	-2.00176924722e-21
1.01608605277 	0.0861262845205 	-4.48478188291e-22
1.0260664187 	0.0685940508828 	-2.77791903554e-22
1.0288271518 	0.0540765119146 	-5.86938437953e-22
1.02833386848 	0.0424913053504 	2.97775285147e-22
1.02641364586 	0.033045318171 	-6.90112061251e-22
1.02403961112 	0.0253445133347 	1.19099317413e-22
1.02177400369 	0.0189206447898 	-4.54289839042e-22
1.01983876702 	0.0133801415702 	-6.8932427121e-22
1.01835105 	0.00858745980941 	-9.27503271928e-23
1.02296798415 	-0.00820104319993 	1.02884485182e-23
1.02556906931 	-0.0126848223714 	4.0996114107e-22
1.0291219909 	-0.0182905214964 	-3.61902399282e-22
1.03364364888 	-0.025041777884 	-1.43402294164e-24
1.03919977513 	-0.0335591496999 	1.80965354086e-22
1.04540238452 	-0.0449268401799 	1.20913996173e-22
1.05133622171 	-0.0604128793295 	-2.85929756132e-22
1.05503051802 	-0.0821576726109 	-8.4653700051e-22
1.05212218373 	-0.112791431981 	-6.3254889654e-23
1.03246997844 	-0.156353236685 	9.18724313351e-22
0.968936735361 	-0.208172277175 	1.43455669901e-20
0.811126888147 	-0.215629960731 	-2.04135397488e-21
0.667615373907 	-0.00710054208767 	-2.64979960508e-21
0.809537844429 	0.199311386204 	-3.6954406887e-21
0.961592351968 	0.192968373665 	1.07716532268e-20
1.02179929727 	0.144930887566 	-5.90414693013e-22
1.04095212259 	0.106061855809 	-1.80390156647e-23
1.04505260121 	0.0792109224525 	6.39784982565e-22
1.04346772166 	0.0600138522185 	1.87063275138e-22
1.03974004931 	0.0459582529689 	-5.82907122416e-23
1.03545087463 	0.0351450283402 	-1.28865422593e-22
1.03138976771 	0.026641590932 	6.55650463662e-25
1.02793779983 	0.0197191320534 	2.39242173963e-22
1.02514009266 	0.0138019666151 	-2.85422076896e-22
1.02303599953 	0.0088717786484 	-3.08546494624e-22
1.02725169194 	-0.00761017414327 	3.43175082872e-23
1.03048454538 	-0.0117701772684 	3.63263271868e-24
1.03498770905 	-0.0168897770239 	6.4663109296e-23
1.04104375258 	-0.0231235098601 	-3.25975525542e-24
1.04883373325 	-0.0310541432709 	-9.95056210681e-24
1.05857894302 	-0.0420643549258 	-1.71882467295e-23
1.0701375075 	-0.0578269755014 	-1.79537204059e-22
1.0828801551 	-0.0814481765648 	-3.58969176586e-22
1.09495561954 	-0.118666320838 	3.82558695365e-22
1.10079757564 	-0.182110589539 	-9.59642070848e-22
1.08120393963 	-0.305904411829 	6.24319945021e-22
0.866775281499 	-0.596252882739 	-1.072129185e-21
0.869090270272 	0.571163255687 	8.1355269335e-22
1.06923680962 	0.286559360504 	-1.38177879936e-21
1.08398163297 	0.170806878139 	-1.44898588059e-21
1.07841010903 	0.114843313481 	-4.10602575052e-22
1.06950862238 	0.0827153519324 	6.57147880225e-22
1.06056202439 	0.0614957150812 	2.34192514542e-22
1.05236304158 	0.0464608362482 	-1.4297563049e-23
1.04520411338 	0.0351551644503 	-3.22981368402e-23
1.03917419177 	0.0264935642091 	-2.84996468869e-23
1.03431791879 	0.0194872488022 	-4.52970726985e-23
1.03057931973 	0.0136236441917 	-1.53794315385e-23
1.02783017881 	0.00871556457887 	-1.2078839111e-24
1.03114320032 	-0.00646624607404 	-9.40564278354e-24
1.03485240444 	-0.0102073038546 	-9.23003477875e-24
1.04013493461 	-0.0143640211674 	-1.53329164557e-23
1.047538182 	-0.0194191260848 	8.36246037845e-25
1.05735474686 	-0.0258277986269 	-6.30763079259e-23
1.07055641651 	-0.0346856749123 	-4.8600073178e-24
1.08800205796 	-0.0476391941157 	-6.47102477174e-24
1.11089536236 	-0.0677914154918 	3.24233590836e-23
1.14149590803 	-0.101063199553 	-5.35674461668e-22
1.18484087508 	-0.158329520722 	-2.39454498178e-22
1.2665274501 	-0.259955562395 	2.1194154795e-22
0.0429613313457 	0.0013688527475 	-1.96993206319e-21
1.24530209084 	0.234165811139 	-2.42795758111e-22
1.15669504407 	0.148115889103 	3.28607847203e-22
1.11724986759 	0.103453186974 	8.73599348869e-22
1.09400221429 	0.0761845163951 	-2.55978330334e-22
1.07763925566 	0.0573120206093 	-2.98641968598e-24
1.06497309696 	0.0434456904265 	5.8977380981e-24
1.05484383501 	0.032871550254 	7.0773778809e-23
1.04683604079 	0.0246955955933 	-2.09592973039e-25
1.04053764553 	0.0181144574326 	3.5578299537e-23
1.03584972623 	0.0127285021814 	3.17449960185e-23
1.03247880687 	0.00795969413574 	-7.3711811425e-24
1.03419111669 	-0.00537713573439 	-1.14824587683e-24
1.03823278164 	-0.00799689661583 	2.59239852446e-23
1.04408895462 	-0.0110324089762 	3.83967428587e-24
1.05229438569 	-0.0143652696148 	1.22371581452e-23
1.06339029024 	-0.0183386351089 	1.34930371757e-22
1.07899364738 	-0.0234306525673 	2.27341227318e-22
1.10065628904 	-0.0306025123814 	-1.33301044947e-21
1.13139803679 	-0.0419068453618 	4.82226265601e-22
1.17585226434 	-0.0609469868678 	1.76419581433e-21
1.24182072839 	-0.0930272984301 	-1.07929697942e-20
1.32355889159 	-0.131849225863 	2.82564872631e-20
0.0884359524823 	-0.0446966999947 	1.38204698478e-21
-0.000367498178435 	-0.00538982909177 	-4.20507508853e-22
0.180993391755 	0.00665166214689 	-3.88216457855e-23
1.27967748414 	0.0861362241087 	-3.31982125419e-20
1.19083810345 	0.0893273520793 	9.77061911306e-21
1.14177227214 	0.0767231259626 	8.88850196893e-22
1.11260084936 	0.061776320317 	2.86187638747e-22
1.09186475872 	0.0482562912253 	1.28971692101e-21
1.0760692929 	0.0371306606656 	-2.254216456e-22
1.06347932917 	0.0282296012487 	-1.91614650297e-22
1.05373962845 	0.0212188678499 	-8.85144773939e-24
1.04615456302 	0.0156079970862 	-1.95950714816e-23
1.04051674011 	0.0108804056722 	-5.51512067789e-23
1.03652557722 	0.0070058349647 	-1.1976999038e-22
1.03655288772 	-0.00393158203649 	6.6407196562e-24
1.04053493174 	-0.00558041032852 	-3.07271478531e-22
1.0465488653 	-0.0073883312418 	3.82201833118e-22
1.05485871916 	-0.00883458302603 	-3.31775059619e-24
1.06621979561 	-0.00995715164977 	-3.6856144148e-22
1.08214896932 	-0.0104610687485 	-3.93334019579e-22
1.10479902693 	-0.0101530676864 	1.14764506002e-21
1.13823454265 	-0.00898885863891 	4.15236949927e-21
1.1883406428 	-0.00784862464869 	1.03627749281e-21
1.26730270332 	-0.0122207978927 	4.08479750986e-21
1.32882326101 	-0.0244000118722 	3.07931718581e-21
0.353930890928 	-0.166424927542 	-4.19908469423e-21
-0.173578937487 	-0.283020692649 	-3.21444115265e-21
0.235326730273 	-0.179155491791 	-6.39553269561e-21
1.19314181921 	-0.0226041958755 	-2.55281940798e-21
1.18004658083 	0.0414204482339 	-2.71975901913e-21
1.14880696389 	0.0506880162007 	-1.06823449115e-22
1.12348789656 	0.0451779645877 	-3.88467228618e-21
1.10231864925 	0.0365598713711 	-1.20667487843e-21
1.08468928931 	0.0284796912811 	3.10773662588e-22
1.07052240353 	0.0217311192104 	3.93109786604e-22
1.05938529333 	0.0163084555611 	4.20840358902e-24
1.05075759093 	0.0120896842879 	-4.91066271803e-22
1.04433962821 	0.00834578132823 	4.29333594781e-22
1.03996302731 	0.00545768289471 	3.75841393443e-22
1.03815624104 	-0.00248550145542 	-2.37243535976e-22
1.04187802348 	-0.00334216913994 	-6.73960596034e-22
1.04751141143 	-0.00400186797727 	-4.67635370267e-22
1.0551979412 	-0.00381775972666 	7.58269415591e-23
1.06545503156 	-0.0023383198224 	-7.38380071603e-22
1.07962176845 	0.00142949885815 	5.26364615586e-22
1.09931680184 	0.00911385338044 	-1.33219580103e-21
1.12775563419 	0.0234554812609 	-9.61143770433e-23
1.17707445359 	0.0478013221165 	-3.20388831368e-21
1.2480686145 	0.0852627007256 	-3.99038673597e-21
1.31903892476 	0.13479848856 	9.48404074893e-21
0.647407511848 	0.00236869281165 	1.51879673497e-20
-0.125952010087 	-0.197191166691 	6.67619988598e-22
0.0825061069939 	-0.211940265491 	6.07977964983e-21
1.04630522052 	-0.030119495681 	-1.11172643104e-21
1.15602228504 	0.0328611766184 	-1.76222994919e-21
1.15075889712 	0.0351615251071 	-1.28161271264e-21
1.13009674777 	0.0299898607502 	2.75790357723e-22
1.10956306588 	0.0236271457499 	1.63822213372e-21
1.09117536549 	0.0180926740893 	-6.04985898663e-22
1.07536041623 	0.0138176765876 	9.37473693484e-22
1.06334478982 	0.0103419508705 	-1.08439192142e-22
1.05400772333 	0.00779056178252 	6.12294593028e-22
1.04714545783 	0.00539713919249 	7.96602093353e-22
1.04247607913 	0.00363378025138 	-2.51082122273e-24
1.03895987616 	-0.00138316042748 	6.88275567663e-22
1.04246191003 	-0.00160178463258 	6.14064434221e-22
1.04728027105 	-0.00138926747333 	-2.79927039519e-22
1.05380644936 	-0.000126931110375 	-1.13702013314e-22
1.06195631301 	0.00304939431426 	3.70772744697e-22
1.07252428333 	0.00952610915249 	1.56810865189e-22
1.08621216685 	0.022840255032 	-2.32655840801e-22
1.10241125248 	0.0437874036191 	7.77804425814e-22
1.12999758958 	0.0859626381653 	2.78487502684e-20
1.17104487177 	0.161386731342 	2.8160834438e-21
1.22258528504 	0.294302064963 	1.10068759777e-21
0.817226007427 	0.372936309437 	5.63089389778e-21
0.0598422929466 	0.248284294248 	-2.61368931717e-22
0.0762782666931 	0.0780442594665 	1.39814929752e-21
0.94630770357 	0.0489481429988 	-2.84591366834e-22
1.16478913049 	0.0526642850704 	8.47909581727e-22
1.16021026937 	0.026494524779 	1.89119643847e-20
1.13699637281 	0.0153987350316 	3.79087908342e-22
1.11537471683 	0.00826757976398 	2.66343200864e-21
1.09432641529 	0.00632106360949 	-3.16228887615e-22
1.07789547263 	0.00476757695985 	-7.75217730662e-22
1.06533752427 	0.00368377044551 	1.47775942168e-22
1.05564435691 	0.00306814650345 	3.42439566922e-22
1.04871621435 	0.00232196091791 	-7.26861246318e-22
1.0438524558 	0.00163864969358 	-6.13025233808e-22
1.0392675002 	-0.000495450471963 	-8.74553598755e-22
1.04240150151 	-0.000354355783725 	-3.62569897699e-22
1.04638994452 	0.000194737627525 	-5.53084974539e-23
1.05158334695 	0.0017764037055 	-2.75431439064e-22
1.05746659284 	0.00519135020251 	2.85649439473e-22
1.06388577433 	0.0123600529263 	-9.38580244566e-22
1.06715783757 	0.0240084273899 	-7.73442640478e-22
1.07085523626 	0.0486626867415 	-1.01139792086e-21
1.07061335883 	0.0925308248337 	2.8622727566e-21
1.05644022565 	0.173818773642 	3.37583292349e-22
1.04964919776 	0.327060486643 	-4.5564282599e-21
0.756985304806 	0.474238914766 	-3.38898792724e-21
0.198182877487 	0.528203756046 	-8.29121582289e-22
0.264379303407 	0.370239181125 	1.15153571907e-21
1.00205976554 	0.107663178065 	-1.60338054855e-21
1.22048466891 	0.0454312450547 	6.65061408377e-22
1.18254411403 	0.000866704065022 	2.57857501267e-21
1.14549088567 	-0.00705823593162 	-7.36260431892e-22
1.11553817553 	-0.00758834932316 	1.17514636535e-21
1.09390674451 	-0.00874031758643 	9.55284141373e-22
1.07814959791 	-0.00498750999949 	-1.61626460678e-21
1.06512144968 	-0.00322175235177 	3.26197289813e-22
1.05551916049 	-0.00169219041729 	1.12644454285e-22
1.04885401482 	-0.000929348172907 	7.98194078677e-22
1.0441576392 	-0.000442587424532 	3.59605108578e-22
1.03918343667 	7.41050878078e-05 	1.03249313759e-21
1.04202873596 	0.000413713644827 	-2.07764784954e-21
1.04546037529 	0.000795157567895 	1.21872996379e-21
1.04958153516 	0.00220941602551 	5.66350832867e-24
1.05308564027 	0.00434709426086 	1.60913990215e-21
1.05486479286 	0.00796791733978 	-3.87541033997e-22
1.05366483124 	0.0164894565303 	-1.16890279247e-21
1.04390894664 	0.0310132353142 	5.40576658831e-23
1.0163573092 	0.0625402543058 	4.88095925835e-22
0.963831080049 	0.118626523099 	2.44860409118e-22
0.886349486808 	0.235931968559 	-1.00148597978e-21
0.566039667893 	0.429461041133 	3.33898961332e-23
0.268027280109 	0.492741741484 	-4.45433551387e-22
0.556952452869 	0.275993912094 	1.47888120152e-22
1.17157633535 	-0.0150148948275 	-8.97903005856e-21
1.26297858272 	-0.0412975309498 	8.39901800565e-22
1.19518667119 	-0.048025740562 	1.19389215588e-21
1.14310309394 	-0.0367288272787 	1.39396688947e-22
1.11085740141 	-0.0285392945457 	-2.52715244632e-21
1.08929025422 	-0.0194095455781 	-7.89644825019e-22
1.07385920602 	-0.0140514712211 	2.07220139331e-21
1.06211536639 	-0.0102125835704 	-1.36152481642e-24
1.05356308151 	-0.00607268623033 	-1.88064103314e-21
1.04755161654 	-0.00417692360916 	3.13785547137e-21
1.0432488458 	-0.00216491701775 	-1.02429017436e-22
1.03897543437 	0.000577832291036 	-7.40209863968e-22
1.0417441459 	0.00101414776036 	-1.3417969606e-23
1.04477932422 	0.00163158947762 	2.13038875865e-21
1.04813379845 	0.00105319076156 	-9.62879910099e-22
1.05152317218 	0.00109688331241 	1.34633155862e-21
1.05266391359 	0.00130870926752 	-1.33867748874e-21
1.04786904139 	0.00123869127722 	1.38495277182e-22
1.03267197077 	0.00192333640522 	-2.17740211535e-24
0.98938473196 	0.00659480373831 	-7.31330540271e-22
0.914234197371 	0.0144205977238 	8.9912839141e-22
0.729701824046 	0.0968978237677 	-9.58437704641e-22
0.432349514666 	0.227716938874 	-4.74015277466e-22
0.453249404337 	0.0993989120085 	-2.76547628704e-22
0.857670258367 	-0.133656088383 	-3.68149660828e-21
1.18604099541 	-0.203919241292 	1.47321064202e-22
1.2437490207 	-0.160211178598 	-4.03045274113e-21
1.17107301799 	-0.101994855195 	3.14692373155e-21
1.12256965501 	-0.0683228246238 	2.75211449725e-23
1.09861164409 	-0.0472557053642 	4.92458785628e-22
1.07892983399 	-0.0314746340199 	-3.14011623724e-21
1.06645959961 	-0.0210884559645 	2.55404157713e-21
1.05670066183 	-0.013942846275 	-4.59417160807e-22
1.0494905434 	-0.00986692329348 	-3.83064610672e-21
1.04527586433 	-0.00668285983717 	-9.71785179281e-23
1.04150979311 	-0.00349832064539 	7.38821248962e-22
1.03834617294 	0.00135339481664 	5.70268020808e-22
1.04138762475 	0.00136895644504 	-2.98179534134e-22
1.04443850717 	0.00119337192105 	-1.78098813355e-22
1.04934244929 	0.000709952468078 	2.09024536308e-22
1.0532488196 	-0.000786359829614 	2.23341651586e-22
1.05639722869 	-0.00447388083794 	2.84092127652e-22
1.0554595768 	-0.0139839816413 	8.51313844947e-23
1.04545429549 	-0.0284857892903 	1.42693552375e-22
1.0112753969 	-0.0635574340035 	6.42957499471e-23
0.907049629639 	-0.0987926852675 	-1.46770647685e-22
0.64236447876 	-0.0907797801656 	4.59572457365e-22
0.511717286655 	-0.142869742078 	3.72723417853e-22
0.641572436024 	-0.278935704925 	-5.23807817561e-22
0.942930295328 	-0.378054833561 	1.85119232056e-21
1.12321018288 	-0.321930646594 	2.06520677208e-21
1.15212079222 	-0.22360949923 	1.75124070942e-22
1.11130532207 	-0.134618375933 	-1.19165284931e-22
1.08881933445 	-0.0865827146272 	-9.03754935436e-23
1.07646393455 	-0.0586830482774 	1.32917973273e-22
1.06499941303 	-0.0378035361192 	9.77431384243e-22
1.05703255408 	-0.0254082372538 	3.29284045995e-22
1.04993262615 	-0.0167138221162 	2.42166283608e-22
1.04514955739 	-0.0109918486202 	-4.7091291453e-22
1.04209847855 	-0.007522505428 	-1.20672166522e-21
1.03897005226 	-0.00443280082069 	-7.94857757138e-22
1.03775958108 	0.00200605414282 	-1.40559876968e-21
1.04034308762 	0.00198538372839 	4.56263175561e-22
1.04491989211 	0.00256564690041 	8.81167643704e-24
1.05040354557 	0.00138719237008 	3.16574295923e-23
1.05700397316 	-8.92058529868e-05 	-8.37567174194e-23
1.06611596381 	-0.00617759619499 	2.59763707992e-22
1.07409899296 	-0.0184675564567 	-1.14270417348e-22
1.09173686547 	-0.0411101521918 	1.97812874062e-23
1.09206988745 	-0.114922916203 	-3.1081108625e-23
0.968098220113 	-0.17770815586 	-2.65141571656e-23
0.705248256842 	-0.311010718714 	-5.75984843585e-23
0.609352917607 	-0.397147514301 	2.98154716451e-24
0.705083965744 	-0.435580453826 	-3.80706398333e-22
0.901115648352 	-0.417533540644 	7.36490561186e-22
1.01422325021 	-0.340713568774 	3.36045525199e-22
1.03971619942 	-0.218005217807 	-7.76651441975e-24
1.03704830016 	-0.141486850857 	2.90938460837e-23
1.04900917343 	-0.0883035277992 	4.39734520132e-23
1.05012335813 	-0.0589505648105 	1.00460990115e-21
1.04844132255 	-0.0373530667519 	-2.79167820477e-22
1.0467905308 	-0.0252409623152 	-4.64171578156e-22
1.04368402299 	-0.0167485171366 	6.78498860507e-23
1.04074875238 	-0.0111025810303 	-3.20600302661e-24
1.03793461088 	-0.00735213265853 	9.9538720204e-22
1.03619142466 	-0.00466333902938 	1.797546141e-22
1.03678224687 	0.00177838482336 	-2.54733841743e-22
1.04020753916 	0.00319980195441 	-2.79419880122e-22
1.04524721781 	0.00398266182804 	8.34664430396e-23
1.05183240051 	0.00389963590675 	1.89828911137e-23
1.06159001636 	0.00414103031725 	8.44290407526e-23
1.07424756681 	-0.00104271597869 	1.32329977563e-23
1.0953023262 	-0.00843492899031 	-9.3320044195e-24
1.13459421522 	-0.0280055999784 	9.65309842198e-23
1.16768067284 	-0.0700613974389 	1.2990377407e-22
1.07948459145 	-0.156001838928 	-2.03486642157e-23
0.848012898712 	-0.304866942853 	-1.3726739916e-22
0.678701697425 	-0.421249716983 	0
0.684900347473 	-0.447081788024 	-8.76064447833e-36
0.801318061587 	-0.387524460053 	-1.38885355126e-24
0.901849793359 	-0.275581949032 	-1.43165082893e-22
0.947478908881 	-0.177246541783 	7.39647086977e-23
0.983201338619 	-0.111639757914 	1.25995610639e-22
1.01225749806 	-0.0710197515414 	-2.03980473306e-22
1.02718040556 	-0.0460868812061 	1.95674999559e-23
1.03278941691 	-0.0300516647468 	3.13591242834e-22
1.03613870498 	-0.020318116064 	1.67204844709e-22
1.03681507723 	-0.0138783012654 	9.12656266063e-24
1.03590172518 	-0.00932771544945 	1.90535930755e-22
1.03493830442 	-0.00613546205683 	-6.24132821142e-22
1.03374007851 	-0.00365006049875 	-5.87784905407e-22
1.03558290781 	0.00286146593284 	0
1.03890802029 	0.00468875735448 	0
1.04392277215 	0.0065528189451 	0
1.050579273 	0.00799112997228 	0
1.0613189631 	0.0114246447658 	0
1.07657624214 	0.0120307775207 	0
1.1004392945 	0.0143108568909 	0
1.14697265054 	0.0186276115128 	0
1.20587472521 	0.0190946917687 	0
1.174034236 	-0.00221860463313 	0
0.984399389475 	-0.0975016194069 	0
0.774346134617 	-0.226807016323 	0
0.68662520863 	-0.291887838329 	0
0.719825010386 	-0.271216829471 	0
0.799768688552 	-0.189190458798 	0
0.87597315658 	-0.111578896609 	0
0.94032309109 	-0.0694533821826 	0
0.985522951274 	-0.043443975983 	0
1.01155533428 	-0.0269289586507 	0
1.02391573828 	-0.0179414799441 	0
1.03046256303 	-0.0127463871555 	0
1.03312528575 	-0.008982389405 	0
1.03346725648 	-0.00646038125944 	0
1.03304512963 	-0.00458978584256 	0
1.03225258589 	-0.00287787979256 	0
1.03378493203 	0.00380100810671 	0
1.03664761251 	0.00607694854786 	0
1.04122681935 	0.00908480532217 	0
1.04687300856 	0.012535921512 	0
1.05646754112 	0.018524733225 	0
1.06990363226 	0.0258503359839 	0
1.08843150695 	0.0379098890627 	0
1.12556135772 	0.0593976506107 	0
1.18048229101 	0.0955602577394 	0
1.18363432117 	0.140179801267 	0
1.07206229391 	0.13767393109 	0
0.887928177382 	0.0642670670972 	0
0.742891821736 	-0.00617557384912 	0
0.707368839034 	-0.0333847491562 	0
0.74798626882 	-0.0166710017343 	0
0.830841611889 	0.0118516987639 	0
0.91823951417 	0.0155357190997 	0
0.973526314069 	0.00995407620134 	0
1.00525660117 	0.00440683695751 	0
1.02155405352 	0.000266710586948 	0
1.02888627242 	-0.00214100334943 	0
1.03191429208 	-0.00291943532251 	0
1.03249498938 	-0.00299944441107 	0
1.03199433274 	-0.0026181795655 	0
1.03113763663 	-0.00185573487192 	0
1.03164090125 	0.00427861615583 	0
1.03383802159 	0.0068918957495 	0
1.03743611543 	0.0106116961196 	0
1.04168146348 	0.0155992319618 	0
1.04860189554 	0.0230446503522 	0
1.05779353478 	0.0343786914257 	0
1.06898546494 	0.0516563865018 	0
1.08985777541 	0.0784944230906 	0
1.12069387315 	0.126891308583 	0
1.12592143828 	0.199355223586 	0
1.06386301096 	0.255456114362 	0
0.928767398439 	0.258969496994 	0
0.791026433607 	0.232538492544 	0
0.73581156487 	0.196299478048 	0
0.756747985409 	0.16976523995 	0
0.839525722076 	0.148519161725 	0
0.938732780288 	0.111414361447 	0
0.995496754889 	0.0687577894345 	0
1.02037249505 	0.0359067761665 	0
1.03007941301 	0.017852251292 	0
1.03320747203 	0.00756186350422 	0
1.03389726351 	0.00234910363648 	0
1.03305833334 	-4.72172392868e-05 	0
1.03180768211 	-0.000935958997652 	0
1.03055163964 	-0.00093798499249 	0
1.02914901394 	0.00422941178643 	0
1.03057134808 	0.00685159560323 	0
1.03276365918 	0.0105750654349 	0
1.03519533466 	0.0159605003192 	0
1.03848242625 	0.0238617005649 	0
1.04222450079 	0.0365206497534 	0
1.04578557195 	0.0559523526852 	0
1.05035792702 	0.0850421594934 	0
1.05479355663 	0.135110241094 	0
1.04485770785 	0.208449602321 	0
1.00490660736 	0.289622436064 	0
0.911332370844 	0.338972502978 	0
0.808631093873 	0.340425302112 	0
0.770704684349 	0.313508011952 	0
0.795499467515 	0.276388913987 	0
0.887653608262 	0.2271623999 	0
0.996436215869 	0.160475800861 	0
1.04838287585 	0.0935311039858 	0
1.05531353244 	0.0484920528361 	0
1.0487458098 	0.0253706736631 	0
1.04322672992 	0.0118976268055 	0
1.03891428654 	0.00508508473008 	0
1.03528529298 	0.00155725023077 	0
1.03257827776 	-3.59234250376e-05 	0
1.03056733357 	-0.000442681692836 	0
1.02670374186 	0.00344929888531 	0
1.02736115096 	0.00558101812182 	0
1.02803144778 	0.00853547656735 	0
1.0282334625 	0.0129913070916 	0
1.02738053567 	0.0200033371493 	0
1.02488161789 	0.0315642227631 	0
1.01940839017 	0.0506734890697 	0
1.00938824116 	0.0800289550803 	0
0.993443634498 	0.126199041263 	0
0.963317596034 	0.190358031937 	0
0.926285538693 	0.272233082849 	0
0.871304956734 	0.339794897823 	0
0.812880732265 	0.355631373937 	0
0.798421954399 	0.334863408682 	0
0.840423665242 	0.290824833944 	0
0.956582447301 	0.216833757776 	0
1.07483087479 	0.130384162826 	0
1.1089076013 	0.0663857967801 	0
1.09029294981 	0.0346146999256 	0
1.06781707387 	0.0184438559124 	0
1.05386738654 	0.00847510271803 	0
1.04448258438 	0.00378531069558 	0
1.03816115957 	0.000999573817922 	0
1.03370781902 	-0.00018733580053 	0
1.03078943471 	-0.000462201153792 	0
1.02499032542 	0.00197164751831 	0
1.02514496599 	0.00312219855834 	0
1.02475573742 	0.00466254114186 	0
1.02310141582 	0.00694076821572 	0
1.01882659453 	0.0108175678243 	0
1.01052219881 	0.0173647753749 	0
0.996058294004 	0.0297574878475 	0
0.974330124233 	0.0497945614466 	0
0.943050070086 	0.081892290079 	0
0.894945489182 	0.12882171009 	0
0.850793416516 	0.189169715392 	0
0.822905334517 	0.252220096021 	0
0.810120627437 	0.278700161432 	0
0.833503749473 	0.25717397365 	0
0.915005193042 	0.191824546434 	0
1.05045598861 	0.101553236783 	0
1.14639403538 	0.0352046766299 	0
1.14456093098 	0.00904205907224 	0
1.10544888198 	0.00467721772701 	0
1.07673159515 	0.00188889771007 	0
1.05896397632 	-0.000555162532674 	0
1.04709242789 	-0.0009975991076 	0
1.0396333319 	-0.00148120855972 	0
1.0342139865 	-0.00125357233952 	0
1.03078359723 	-0.000945063034191 	0
1.02441545367 	0.000361583027773 	0
1.02457737064 	0.000357088110167 	0
1.02409185814 	7.30409938513e-05 	0
1.02212774932 	-0.000777681642144 	0
1.01697150038 	-0.00229781047115 	0
1.00628382688 	-0.00499000928205 	0
0.987075237195 	-0.00768943729059 	0
0.957892100421 	-0.00893374701814 	0
0.914384419384 	-0.00160567238515 	0
0.854324315694 	0.0175755222895 	0
0.805147891601 	0.0416712761942 	0
0.789629641498 	0.0668150402209 	0
0.81540664812 	0.0770159513052 	0
0.889056323353 	0.0551635728118 	0
1.00263529263 	-0.00134096909291 	0
1.11906298776 	-0.0542648456956 	0
1.16697344128 	-0.0608456395097 	0
1.13929857387 	-0.0414373589068 	0
1.09867816238 	-0.0241982944981 	0
1.07359724774 	-0.0152918640884 	0
1.05699440343 	-0.0104399750304 	0
1.04553000998 	-0.00684996598048 	0
1.03851411042 	-0.00477817859635 	0
1.0333004705 	-0.00297847310842 	0
1.03006152489 	-0.00187382799908 	0
1.02486413572 	-0.000823501592384 	0
1.02560794371 	-0.00182155703513 	0
1.0261278974 	-0.00390719212797 	0
1.02593351752 	-0.00784236221617 	0
1.02354382687 	-0.0148034479916 	0
1.01667671439 	-0.0270046962706 	0
1.00033071907 	-0.0468896917472 	0
0.968703709307 	-0.0731071729153 	0
0.915652776937 	-0.0937731668468 	0
0.849158857681 	-0.104498209427 	0
0.802152825205 	-0.113744345568 	0
0.79220572821 	-0.12841942607 	0
0.830434300592 	-0.143535844505 	0
0.922056925953 	-0.156235144571 	0
1.03094010639 	-0.165618219589 	0
1.1129153076 	-0.153817287553 	0
1.13359858538 	-0.114028209341 	0
1.10746942319 	-0.0712990948316 	0
1.07990120493 	-0.0437387446721 	0
1.06298634277 	-0.0278705197822 	0
1.05036607377 	-0.0179360198883 	0
1.04119082836 	-0.0115210299607 	0
1.0354979976 	-0.00754547777532 	0
1.03116015323 	-0.00464793451806 	0
1.02852716471 	-0.00281615517859 	0
1.02594972962 	-0.00148293727761 	0
1.02774653412 	-0.00307720102843 	0
1.0301049089 	-0.00618589646116 	0
1.03311391952 	-0.0116792110876 	0
1.03624739465 	-0.0211049218227 	0
1.03863229687 	-0.0377008317233 	0
1.03325995032 	-0.0664028218345 	0
1.00483361611 	-0.109958504428 	0
0.945380767936 	-0.154335536237 	0
0.873178618385 	-0.188252217725 	0
0.826732829436 	-0.21772143501 	0
0.816446779596 	-0.245647369154 	0
0.842788742762 	-0.265726025351 	0
0.914343156357 	-0.267299738181 	0
1.00015095964 	-0.242241314587 	0
1.06271363275 	-0.193778969705 	0
1.07989497702 	-0.135702826544 	0
1.06691993073 	-0.0868892513067 	0
1.05568627183 	-0.0551386404804 	0
1.04807875894 	-0.0349270727818 	0
1.04088806175 	-0.0218570610151 	0
1.03528377619 	-0.0137327628019 	0
1.03158867947 	-0.00868849415237 	0
1.02854809778 	-0.0053016338772 	0
1.02664036091 	-0.00314710007037 	0
1.02727685764 	-0.00160166555145 	0
1.03022745524 	-0.00316380573772 	0
1.03455902991 	-0.00595612236792 	0
1.04080914424 	-0.0107654007576 	0
1.04971906305 	-0.0185944677588 	0
1.06229652925 	-0.0326577413263 	0
1.0730388052 	-0.0565764057953 	0
1.05642799472 	-0.101129113665 	0
0.994120608824 	-0.161132904661 	0
0.912217128899 	-0.213779655255 	0
0.85866398362 	-0.254824998373 	0
0.841164796722 	-0.283842048645 	0
0.850714947671 	-0.300458466146 	0
0.893661473247 	-0.295035712357 	0
0.949721669619 	-0.255496348536 	0
0.999313401549 	-0.195112302344 	0
1.02350941005 	-0.134517557378 	0
1.02540915925 	-0.088210858549 	0
1.02796950221 	-0.056550488808 	0
1.02987919124 	-0.0346396949866 	0
1.02939279036 	-0.020907334671 	0
1.02835548079 	-0.0126682985414 	0
1.02725335053 	-0.00773887088208 	0
1.0258515698 	-0.00460128790867 	0
1.02478321355 	-0.00267013610063 	0
1.02843695244 	-0.00100106787742 	0
1.03215614264 	-0.00187031272252 	0
1.03783206395 	-0.00325702877805 	0
1.04610285208 	-0.00575396413663 	0
1.05870006051 	-0.00936485341218 	0
1.07752753214 	-0.0162529675464 	0
1.10182736925 	-0.0264415672828 	0
1.10844337467 	-0.0513183429858 	0
1.05917807044 	-0.103979402526 	0
0.967937175239 	-0.170214643991 	0
0.89583640852 	-0.228262576123 	0
0.860912523763 	-0.261646226735 	0
0.85144544577 	-0.272997189908 	0
0.866323574583 	-0.256660272955 	0
0.894945412303 	-0.210110506499 	0
0.936564776 	-0.154032271115 	0
0.972102182319 	-0.102031862161 	0
0.988550159132 	-0.0652095108984 	0
1.0016146417 	-0.0407112347992 	0
1.01215647363 	-0.0234349985417 	0
1.01861475435 	-0.013534297282 	0
1.02204353414 	-0.00788583953555 	0
1.02342911576 	-0.00469555415317 	0
1.02354438648 	-0.00269545422404 	0
1.02327361305 	-0.00154048746978 	0
1.02886180994 	0.000193983562165 	0
1.03270835645 	0.000392021579759 	0
1.03874161274 	0.000797301949073 	0
1.04737351296 	0.00114795237769 	0
1.06075373921 	0.00225728027581 	0
1.08029858794 	0.00347465012316 	0
1.10835598967 	0.007290146545 	0
1.13376932089 	0.0104424267992 	0
1.11338494123 	-0.00509354487901 	0
1.03728103623 	-0.0498196601837 	0
0.951761506082 	-0.10698981916 	0
0.886700582511 	-0.141232443766 	0
0.846775548952 	-0.147149357198 	0
0.835077511099 	-0.130269145489 	0
0.849174623015 	-0.0990147673094 	0
0.889388679757 	-0.0662279806248 	0
0.934679666092 	-0.034540420895 	0
0.964416976953 	-0.0148080732941 	0
0.985757196078 	-0.00567646770334 	0
1.00248669298 	-0.00129467467008 	0
1.01351940505 	-0.000283968322676 	0
1.01929676185 	-7.15701753528e-05 	0
1.02180539963 	-0.000128250514787 	0
1.02255434155 	-7.80631505993e-05 	0
1.02261284686 	-0.000107817628448 	0
1.02820859279 	0.00148509882849 	0
1.03164660664 	0.00267053328895 	0
1.03712281098 	0.0046737854735 	0
1.04474399141 	0.00762088269545 	0
1.05651900921 	0.0127685153177 	0
1.07290279822 	0.0207385468774 	0
1.09546686959 	0.0344310761255 	0
1.12103933685 	0.0574210894313 	0
1.12041383991 	0.0798545496081 	0
1.07358134252 	0.0807798245819 	0
0.993603538636 	0.0603970861014 	0
0.908041222799 	0.0459937797627 	0
0.846291321263 	0.0431927129163 	0
0.822880766482 	0.0426107438287 	0
0.833046885563 	0.0419946219645 	0
0.870937894189 	0.0439179307555 	0