1.01389007851 	-0.0079569551618 	-1.02816547766e-21
1.01497843085 	-0.0123410099858 	-7.97999002732e-22
1.0162577804 	-0.0171822403325 	3.22109929599e-22
1.01772383322 	-0.0227947688121 	-2.29554748729e-23
1.01905169566 	-0.0292984297069 	-3.27005181718e-22
1.01975920227 	-0.0370043913257 	-2.01639589544e-22
1.01882106876 	-0.0457294129198 	-2.25675316484e-22
1.01454203256 	-0.054525418008 	-1.23501893805e-21
1.00502425399 	-0.0648942219461 	1.8256090969e-20
0.986014217896 	-0.0699534127426 	1.48231239806e-21
0.95842349908 	-0.0639710599616 	7.07175270272e-23
0.9296361776 	-0.0385017363668 	1.94694428486e-21
0.916404136139 	0.00534008699764 	-4.68174669077e-24
0.930431880166 	0.0490072907886 	2.11046754735e-22
0.959980542339 	0.0736840432112 	-1.60474603493e-21
0.988099077801 	0.0785690725148 	1.92429446573e-21
1.00747994613 	0.0720545528418 	2.0373719277e-20
1.01706127122 	0.0597153364938 	-1.64757840071e-21
1.02130416352 	0.049767059528 	-1.72242632053e-21
1.02182645362 	0.0396294846961 	3.64102077936e-22
1.02069498887 	0.0308785720953 	9.03875540485e-22
1.0189356976 	0.0236415678583 	-3.02919268223e-23
1.0170696049 	0.0175527826945 	-4.70770432996e-22
1.015478888 	0.0124443515465 	1.12104502889e-21
1.01416618239 	0.00788576585643 	1.12930555587e-21
1.01829412086 	-0.00854321600591 	3.21613222606e-22
1.01982205006 	-0.0132562112062 	6.64591193937e-22
1.0218164078 	-0.0187055985582 	3.27121844174e-22
1.02418825426 	-0.0250240684661 	-9.47787680618e-23
1.02671632809 	-0.0325858868143 	5.03836170017e-22
1.02887781054 	-0.0419278025228 	-2.06338222363e-22
1.02969991851 	-0.0534732151318 	3.3946615873e-22
1.02730792038 	-0.0681089181591 	1.37691343574e-22
1.01765590484 	-0.0860862271563 	-5.02947651952e-22
0.994117211575 	-0.103769988056 	-2.22949092427e-21
0.947662577387 	-0.111687303277 	-3.40593234542e-21
0.881496234147 	-0.0810506130066 	9.82502983093e-21
0.844862150782 	0.00632711137622 	1.66940206518e-22
0.883028969457 	0.0930468168021 	9.90313152146e-21
0.950089621631 	0.122807765331 	-8.8871274552e-21
0.997685187614 	0.113768762538 	-2.4174490141e-21
1.02199625809 	0.0942172239561 	-5.63172776831e-22
1.03181342748 	0.0741240941894 	-3.66176318825e-22
1.03381709476 	0.0573922949395 	-8.68850773809e-22
1.03232340835 	0.0442138010375 	4.26738680613e-22
1.02932112176 	0.0336863843532 	-9.48707827591e-22
1.02597737146 	0.0253827787481 	1.69165564787e-22
1.02296247955 	0.018657120062 	-7.77411541856e-22
1.02046448198 	0.0130433068897 	-1.02388313882e-21
1.01859729199 	0.00828818783937 	-7.85320799471e-23
1.02288800001 	-0.0088345026611 	6.8958008049e-24
1.02501592933 	-0.0136180322497 	1.99163918084e-22
1.02784820974 	-0.0194026869889 	-1.5079959643e-22
1.03137677029 	-0.0261501676653 	9.20266523024e-26
1.0355777453 	-0.034403835428 	1.02907841044e-22
1.04011026026 	-0.0449437859359 	7.33608544812e-24
1.04425651169 	-0.058795345802 	-5.66569421344e-23
1.04648115039 	-0.0778908656677 	-3.02356317135e-22
1.04315252495 	-0.105064475553 	2.43967488161e-23
1.0246419389 	-0.145024511464 	6.32046840206e-22
0.964025199827 	-0.194835762858 	1.18267526124e-20
0.808716957296 	-0.201653681739 	-2.00385578215e-21
0.667649786886 	0.00729858785207 	-2.65832773583e-21
0.812030255168 	0.213272475453 	-3.84920612309e-21
0.966622529757 	0.206270615487 	1.31394923189e-20
1.02971119894 	0.156149289704 	-8.54402856862e-22
1.04995883738 	0.11366179788 	-5.83784586251e-23
1.05358767882 	0.0833508254616 	1.36313471908e-21
1.05049427185 	0.0615284775279 	4.87611220163e-22
1.04497466892 	0.0458757043678 	-1.82377715741e-22
1.03901379948 	0.0342613119601 	-2.14906006042e-22
1.03360784071 	0.0255032366021 	2.63249977362e-24
1.02917064139 	0.0185895540906 	4.91025096124e-22
1.02566169334 	0.0128587005602 	-5.32747805284e-22
1.02308837779 	0.00823639045525 	-5.48412232147e-22
1.02758939371 	-0.00868104879788 	1.01541917409e-23
1.03032299295 	-0.0134385562683 	2.57701975108e-23
1.03404452803 	-0.0191339273112 	3.07078176892e-23
1.03891599599 	-0.0259013406734 	5.85917807302e-23
1.04498877978 	-0.0342011845616 	7.0813039794e-23
1.05234940825 	-0.0450309495861 	3.78462887233e-23
1.06100160587 	-0.0595499449285 	-3.72377817236e-22
1.07082094084 	-0.0802351511918 	-4.11484276412e-22
1.08126531258 	-0.112403126021 	7.03212982674e-22
1.08893453151 	-0.169624817266 	-1.66755204647e-21
1.07579282193 	-0.290098439321 	1.46573392322e-21
0.865306686057 	-0.584788866579 	-5.53567820533e-23
0.870579916685 	0.582824176677 	1.31526052367e-21
1.07489104354 	0.302377052214 	-4.56419452717e-22
1.09602462015 	0.183108104381 	-4.2927845083e-22
1.09213861003 	0.120871249749 	-1.59797849157e-22
1.08151464569 	0.0837506601218 	4.67064071242e-22
1.06960539948 	0.0596488489277 	2.18357169387e-23
1.05850000041 	0.0434270535067 	4.78476395474e-23
1.0489693356 	0.0319737516731 	7.27031340175e-23
1.04123676519 	0.0236980760193 	4.19043598487e-23
1.0352125635 	0.0172359669905 	-8.34253512416e-23
1.03069990445 	0.0119479765175 	1.21538176723e-23
1.02746015054 	0.00764692644812 	-1.10296585517e-23
1.03215574858 	-0.0079394402247 	1.58849221061e-23
1.03546353252 	-0.0125983966758 	-4.82779947041e-23
1.04005731471 	-0.0178287535491 	-5.10744714812e-23
1.04625929247 	-0.0241470611856 	1.40899078352e-24
1.05415793418 	-0.0318852107886 	-8.82952216379e-23
1.06428820934 	-0.0417906221266 	-6.31137621692e-24
1.07726470509 	-0.0547043180203 	-7.60147413155e-24
1.09453387382 	-0.0723014818491 	3.76791815766e-23
1.11998976714 	-0.0984366991141 	-6.19139692129e-22
1.16358410385 	-0.142976528169 	-2.93200021069e-22
1.25973251098 	-0.231916979474 	2.58801526922e-22
0.0372152762706 	0.00150369857108 	-1.65399399611e-21
1.25278555491 	0.262179304104 	-1.92972866864e-22
1.17825676889 	0.163073367116 	2.59818920147e-22
1.1387495093 	0.105685852664 	7.10591505324e-22
1.11021382458 	0.0714446748835 	-2.07074978915e-22
1.08820088954 	0.0501248105756 	-2.36447960805e-24
1.0711039443 	0.03630665938 	3.45951198771e-24
1.05794027559 	0.0268176660809 	4.16082541093e-23
1.04803825605 	0.019977920201 	-9.74760729437e-26
1.04056421811 	0.014666598527 	-7.54292559312e-24
1.03519643541 	0.0103541589659 	-1.45973074875e-23
1.03142951273 	0.00650056319684 	2.51121013274e-23
1.03614899063 	-0.00708688641543 	-5.32830255705e-24
1.04003829502 	-0.0108875499316 	7.14885488805e-23
1.04549433267 	-0.0155142473906 	2.8905738342e-23
1.05283949234 	-0.0209150669227 	1.46735087243e-23
1.06222775804 	-0.0275261525965 	1.64781703631e-22
1.07444156121 	-0.0356551206245 	2.4677597235e-22
1.09005148176 	-0.0454206275506 	-1.3977991341e-21
1.11115946159 	-0.0566928957557 	4.11731264102e-22
1.14241574547 	-0.0684807911972 	1.84233471837e-21
1.19709073585 	-0.0775249701097 	-1.13953880806e-20
1.29598020988 	-0.0738870929543 	3.33009915481e-20
0.167953887078 	-0.0205456295068 	1.9986926729e-21
-0.000481028118034 	0.000175769914617 	-4.15063859083e-22
0.0987950956577 	0.0353391722271 	1.19072157636e-22
1.30917665336 	0.143608401895 	-2.77432190369e-20
1.23587893084 	0.103766852331 	9.19374520366e-21
1.17494458203 	0.06852419344 	9.05041387829e-22
1.13248022627 	0.046749525315 	1.75521077794e-22
1.10214639429 	0.0333956530609 	1.19443522226e-21
1.08042681202 	0.024943858288 	-1.98022910342e-22
1.06452676879 	0.0191069989548 	-1.43229949898e-22
1.05311376833 	0.0147149198046 	-6.81345746471e-24
1.04470079425 	0.0111677386601 	1.20391981759e-23
1.03867663478 	0.00802248258251 	3.64960357127e-25
1.03453945562 	0.00532298280899 	-2.21768521119e-23
1.03959746375 	-0.00563921452801 	2.35207311631e-23
1.04383563154 	-0.00854907643351 	-4.76733917151e-22
1.0500108081 	-0.0123110438516 	5.45846717571e-22
1.05827519846 	-0.0164722858377 	-4.24370617486e-24
1.06877142273 	-0.021684561697 	-4.19701179115e-22
1.08209636445 	-0.0277963873628 	-4.04833167667e-22
1.09862100538 	-0.0345040647554 	1.12690205702e-21
1.11865406161 	-0.0401193608979 	3.71626656114e-21
1.14393383112 	-0.0400410424645 	9.45719990873e-22
1.17975165739 	-0.0208090275326 	3.35574670472e-21
1.21281489179 	0.0513742267058 	3.56432518757e-21
0.290900420593 	0.173073717079 	-5.09375312571e-21
-0.186136848719 	0.260432276304 	-3.11457746543e-21
0.31336271648 	0.16395633458 	-5.45337939484e-21
1.3120189135 	0.0507516610288 	-2.01563343405e-21
1.26693324544 	0.0304881733244 	-3.42021033932e-21
1.1922204082 	0.0177391453767 	-1.08593400279e-22
1.1423114291 	0.0139430302611 	-4.29788369233e-21
1.1080673903 	0.0123632349568 	-1.19892445462e-21
1.08455890983 	0.0112974127826 	2.93546833653e-22
1.06786205052 	0.0101410314005 	3.27100860485e-22
1.05590970218 	0.00875690682823 	2.91528214383e-24
1.04726182172 	0.0072228126864 	-2.90261528405e-22
1.04101041159 	0.00540001622684 	2.21226592209e-22
1.03689836604 	0.0037663230854 	1.66199190355e-22
1.04221357093 	-0.00390948628964 	-3.71233163564e-22
1.04673234907 	-0.00585345867808 	-9.82577689292e-22
1.05334304572 	-0.00841963502904 	-6.44912425905e-22
1.06226795272 	-0.0111630033392 	1.01007621744e-22
1.07347072581 	-0.0147632774773 	-8.40376780769e-22
1.08785641061 	-0.0189957334035 	5.16529285619e-22
1.10408644347 	-0.0237906686479 	-1.25077467192e-21
1.12123173042 	-0.0277010991195 	-8.08046624413e-23
1.13676281055 	-0.0259266230946 	-1.9967710231e-21
1.13804325173 	-0.0091969484535 	-2.42730403614e-21
1.0515829404 	0.0814626852231 	3.46853753054e-21
0.143110389567 	0.295288150058 	7.92293576652e-21
-0.139009470496 	0.310878303645 	6.13259378178e-22
0.603751737955 	0.0852349410136 	1.36558429614e-20
1.31883790021 	-0.0860679764676 	-2.35498770918e-21
1.26360259313 	-0.0638412097059 	-2.66310519898e-21
1.1883320542 	-0.0393017036894 	-2.10070043299e-21
1.13555449073 	-0.0208288744624 	3.20636399168e-22
1.10442309241 	-0.00874263623341 	1.70148857688e-21
1.08278505163 	-0.0020094095162 	-5.98204724456e-22
1.06734476409 	0.00157293040303 	7.7725057748e-22
1.05628175104 	0.003111193965 	-7.52934061446e-23
1.04817828585 	0.00344356320618 	3.87556499933e-22
1.04228707899 	0.00292988707726 	4.79580974734e-22
1.03841342685 	0.0022421684286 	1.62417135366e-23
1.04376917467 	-0.00201931102871 	1.07320584606e-21
1.04853425447 	-0.0029753176035 	9.04133098649e-22
1.05529002827 	-0.0040850682712 	-3.73623125797e-22
1.06464790145 	-0.00517953987668 	-1.34598081949e-22
1.07640480031 	-0.00693490941598 	4.62424168508e-22
1.0912317623 	-0.00932618613842 	1.94613202191e-22
1.10917250778 	-0.0121358488229 	-2.17508575123e-22
1.1253525012 	-0.0192785640439 	5.3266177513e-22
1.13829978252 	-0.0277614730755 	1.68207554617e-20
1.12434994622 	-0.0416656519103 	6.37474396822e-22
0.907004658872 	-0.00358311179584 	-3.73372759091e-23
0.0572440481132 	0.0711534909802 	1.29890335153e-21
0.0700059893521 	-0.0882923744041 	-4.5388865284e-22
0.83925050938 	-0.273681127401 	2.82007067635e-21
1.26345321785 	-0.262301137264 	-2.5885307577e-21
1.20630387301 	-0.152333615793 	3.33309181904e-21
1.14880061518 	-0.0854967925597 	2.92009047213e-20
1.11313503155 	-0.0459503052554 	6.04433431375e-22
1.09236658253 	-0.0258278010951 	2.75190893935e-21
1.07572579363 	-0.012045705405 	-2.56395165658e-22
1.06359474119 	-0.00507076222907 	-6.00469952581e-22
1.05460254776 	-0.00127951350257 	1.14201209018e-22
1.04769126557 	0.000430021296035 	2.35314604441e-22
1.04266856153 	0.000991387680296 	-4.34302185341e-22
1.03904674009 	0.00101664751322 	-3.25179103482e-22
1.04431555002 	6.60815930332e-05 	-1.38286770402e-21
1.04902463875 	0.000205386585263 	-5.18279274589e-22
1.05566928999 	0.000474667444191 	-1.23680077024e-22
1.06516749416 	0.00121817647566 	-3.70787676928e-22
1.07773549306 	0.0017928106298 	1.69894054798e-22
1.09265502631 	0.00343785755086 	-9.64643674306e-22
1.11176169231 	-0.00030807040186 	-9.19689383202e-22
1.13602289703 	-0.00558390949897 	-8.60222572673e-22
1.16170668128 	-0.0202581282463 	1.9714903817e-21
1.16881230868 	-0.0732923178439 	-4.90362517612e-23
0.8785304462 	-0.119172255378 	-6.13150853506e-22
0.197304048705 	-0.29619161045 	-1.67101559284e-22
0.258371343639 	-0.456778744071 	-9.59816597028e-22
0.838101785729 	-0.470481272409 	3.94646571977e-21
1.11327419493 	-0.342857825866 	-2.95122151743e-21
1.09537467833 	-0.189243912735 	1.35923744495e-21
1.09026269257 	-0.104978113337 	3.27033637754e-21
1.08078690862 	-0.0580570628495 	-8.68419505096e-22
1.07181988932 	-0.0307377235863 	9.6304208269e-22
1.06585858917 	-0.0169513120004 	9.07580369525e-22
1.05822176265 	-0.00847532046481 	-1.28676664053e-21
1.05170065049 	-0.00373291664119 	2.22140991558e-22
1.04630962163 	-0.00143268871471 	4.1712001486e-23
1.04224948288 	-0.000384510948536 	4.71283923392e-22
1.03910358646 	7.67391569012e-05 	1.89042368926e-22
1.04366650329 	0.00176895511583 	1.67072632303e-21
1.04814732831 	0.00350238748313 	-3.24103597936e-21
1.05434559168 	0.00491385947992 	1.81108381333e-21
1.06307142944 	0.0082691618667 	7.37920809823e-24
1.07506741714 	0.0105467179345 	2.46914423508e-21
1.0906145098 	0.013462869002 	-6.06204704585e-22
1.11245264934 	0.018619445551 	-1.96282867946e-21
1.14168268466 	0.0186903871099 	1.13903107544e-22
1.19332425638 	0.0156414767985 	1.12468953289e-21
1.2347681537 	-0.0241878104378 	6.62717579336e-22
1.05644538637 	-0.093109351696 	-5.72075788003e-21
0.4072411459 	-0.427290878894 	1.23255365255e-22
0.313421767046 	-0.551896706058 	-3.71025977404e-22
0.720790912645 	-0.444446653093 	4.99126016691e-23
0.942955575433 	-0.292273216234 	-2.87227734481e-21
0.989696859466 	-0.159372278139 	4.46943722754e-22
1.03005460335 	-0.0879120559634 	6.03464117239e-22
1.04806769654 	-0.0474236041762 	8.52688895867e-23
1.05465789986 	-0.0261553681104 	-1.53038024308e-21
1.05425422714 	-0.0139288181072 	-5.01462615298e-22
1.05214854629 	-0.00790069506922 	1.29795815614e-21
1.04878204538 	-0.00414047895637 	-1.20778018359e-24
1.04473101118 	-0.00202962240476 	-1.13753376768e-21
1.04145370106 	-0.00111353355274 	1.76480060985e-21
1.03878084189 	-0.00045962907295 	-3.54489076711e-23
1.04212706305 	0.00329555890808 	-1.27679601883e-21
1.04625393736 	0.00632253905711 	6.75137924366e-23
1.05085607428 	0.00924291104544 	3.72023161083e-21
1.05865790786 	0.0124586263945 	-1.78866356022e-21
1.06961948659 	0.0184720718942 	2.63073524204e-21
1.08332896145 	0.0265448202706 	-2.88987012585e-21
1.10596856787 	0.0382748539397 	3.26791841382e-22
1.13267046204 	0.0523329323108 	-1.11717088732e-23
1.19585336969 	0.0728260176215 	3.09919189665e-21
1.25942078219 	0.0980490875817 	-3.86339287509e-21
1.15654626247 	0.0941952796488 	5.05241333583e-21
0.733999488193 	-0.0888570836724 	4.27949129993e-21
0.39967408748 	-0.322902845714 	-2.24584816719e-22
0.514835627121 	-0.344103890165 	7.35439924176e-23
0.802496490519 	-0.152308274409 	-2.12094881918e-22
0.9191416702 	-0.0719060416639 	3.19225823209e-22
0.985652318363 	-0.0414597995155 	-2.85571549908e-22
1.02750082461 	-0.0207403077029 	6.16104724825e-24
1.04256114725 	-0.0118929959688 	2.02191041266e-22
1.04863368879 	-0.00707162063828 	-1.42289470216e-21
1.04846700719 	-0.00418503985511 	1.22855460741e-21
1.04614357463 	-0.00279193170633 	-2.27075041922e-22
1.04349745912 	-0.00235893367314 	-1.92877273031e-21
1.04078693239 	-0.00137420151696 	2.8781694102e-24
1.03835210315 	-0.000790229914668 	3.60728480098e-22
1.03962460587 	0.00449123565173 	1.07969254635e-21
1.04319671413 	0.00748711619702 	-6.05382662126e-22
1.04679852412 	0.0108331746669 	-4.13212468006e-22
1.0526097075 	0.0163659715478 	3.31884086168e-22
1.06125403716 	0.0243771833248 	2.0769049208e-22
1.07186610239 	0.0362541392887 	1.12666629632e-21
1.08796452241 	0.0538654806718 	1.60080173419e-22
1.10559500189 	0.0795734279173 	-1.20980557563e-22
1.14764202893 	0.121131526017 	-1.96913469088e-22
1.20232030563 	0.199443659907 	2.07897076483e-22
1.15187087523 	0.275091642828 	-2.21937528565e-21
0.918752920707 	0.273896863877 	-2.14202201044e-21
0.594549296654 	0.108166618155 	-5.72383180145e-22
0.502225968797 	-0.0382586426088 	-4.06620762974e-22
0.670102516355 	-0.0219000177001 	-3.95492790291e-22
0.89287185779 	0.0427141313037 	-1.86068770872e-22
0.982641138559 	0.0276888582357 	1.37316235385e-23
1.02654482626 	0.013142675804 	1.43244049481e-22
1.04368749268 	0.00663846294275 	8.46490808616e-23
1.04887190131 	0.00125188944993 	2.07502258801e-22
1.04889358709 	-0.000745708050757 	2.12384646297e-22
1.04638167761 	-0.00134605982927 	1.29669286343e-22
1.04271242582 	-0.00146184987065 	-1.67106387438e-22
1.04026004615 	-0.00151488521186 	-5.26340533908e-22
1.03768708698 	-0.0013240602723 	-3.30159219622e-22
1.03679864984 	0.00499698334142 	-2.98584812578e-21
1.03895157043 	0.00778786225165 	9.82087630921e-22
1.04230076416 	0.0118003220507 	-5.09995740861e-24
1.04641592962 	0.0177075069811 	7.73595402061e-23
1.0509033015 	0.026419467052 	-5.64974682492e-22
1.05598661526 	0.0397168284699 	-3.38509910099e-22
1.06236828668 	0.0612285589181 	1.20247928193e-21
1.06831433767 	0.0923367348442 	3.31984652015e-23
1.07361044005 	0.144304105335 	5.86624517916e-23
1.09796475507 	0.230449529311 	-1.60872239369e-22
1.06776450261 	0.336745629929 	-1.19498361913e-21
0.919477580583 	0.38876808455 	1.25040465518e-23
0.707763647464 	0.364568714664 	-4.24376720954e-22
0.600584999571 	0.293663041855 	-1.95605866993e-22
0.669269296082 	0.223682800316 	3.72287738599e-23
0.906406328821 	0.151929567293 	-5.65081589947e-24
1.03882935262 	0.105745253086 	-2.10358129961e-23
1.05994457821 	0.0421701890142 	1.27595550433e-23
1.05921027279 	0.0187932385033 	-3.45217943788e-22
1.05692780053 	0.00721399414375 	3.00646274063e-22
1.05174578259 	0.0010230680439 	3.15916793288e-23
1.04747735075 	-0.000885200913731 	2.21733099716e-23
1.04331322505 	-0.001948387348 	1.29755078519e-23
1.03935007076 	-0.00163689641924 	3.36947708391e-22
1.03709767262 	-0.00172423912531 	1.07902400978e-22
1.03408124513 	0.00417823416506 	-6.40614386481e-22
1.03555206493 	0.00704151267959 	-6.78500183082e-22
1.03702421227 	0.010796383985 	2.06478069769e-22
1.0387280603 	0.0162862708101 	-5.17140756443e-24
1.03946866166 	0.023774138945 	1.86401412985e-22
1.03875818742 	0.0355701885854 	4.18066719894e-22
1.03717004485 	0.0542868779144 	3.00994150731e-23
1.02900278783 	0.0824268545748 	-3.74152068189e-22
1.0130501092 	0.128054248161 	2.74430641711e-22
0.995711907229 	0.204680907449 	1.87605962697e-22
0.964290039033 	0.309304127075 	-3.11837208133e-22
0.86071787647 	0.403971538461 	0
0.719967934242 	0.446471138101 	-2.93464651129e-36
0.672661003871 	0.425988980073 	-4.65239085888e-25
0.784254370924 	0.3418108439 	2.14753643302e-22
0.991842803918 	0.21071485197 	-2.27010753483e-22
1.11143266967 	0.10798409149 	-1.80874222558e-22
1.10802048385 	0.050281848853 	3.73281969035e-22
1.08243233077 	0.0196378048121 	-2.46103959138e-23
1.06721337257 	0.00771405518574 	-1.50187327106e-22
1.05777158053 	0.000610692688476 	5.0774113324e-23
1.04990770837 	-0.00143820952337 	4.64071602266e-23
1.04418583411 	-0.00240757710063 	5.80562554701e-23
1.03954965808 	-0.00230882336787 	-1.68078443359e-22
1.03635927505 	-0.00130430490876 	-1.50275992766e-22
1.03222391066 	0.00352432312695 	0
1.03306088113 	0.00572033923087 	0
1.03359403571 	0.00838018705387 	0
1.03370157616 	0.0122359966438 	0
1.03179417594 	0.0178810940455 	0
1.0267554219 	0.0263923206253 	0
1.0179413008 	0.0406391641521 	0
0.997747365169 	0.0642798941107 	0
0.961964658654 	0.101504229516 	0
0.915063187592 	0.15969585042 	0
0.859971487849 	0.252420497507 	0
0.775402076228 	0.351011801915 	0
0.701015944507 	0.392189250728 	0
0.727712123117 	0.352027895548 	0
0.89900321111 	0.236173199509 	0
1.11026168752 	0.108858181765 	0
1.18335085823 	0.0404805398125 	0
1.14226963793 	0.0134393101425 	0
1.0989466354 	0.00276573663401 	0
1.07505450075 	-0.00207565674687 	0
1.06060778882 	-0.00537233081657 	0
1.05036754336 	-0.004568039711 	0
1.04369696249 	-0.00445086064176 	0
1.03882491392 	-0.00345112236959 	0
1.03553312481 	-0.00217954193775 	0
1.03074365931 	0.00243911042277 	0
1.03139369147 	0.00366402243199 	0
1.03156996063 	0.00480902892576 	0
1.03066538498 	0.00611905304862 	0
1.02713381124 	0.00795230464406 	0
1.01912297003 	0.010042015337 	0
1.00303662767 	0.0138655156908 	0
0.972626322327 	0.0223600151308 	0
0.922381817832 	0.0371045319752 	0
0.848453893262 	0.0649845113793 	0
0.77493210964 	0.121543373131 	0
0.72282384497 	0.173556302871 	0
0.727156891191 	0.175429340612 	0
0.834679330334 	0.109062981827 	0
1.0253411707 	0.000605606326197 	0
1.18102889671 	-0.0599638277621 	0
1.19868213609 	-0.0543511728844 	0
1.14054054584 	-0.0364788391414 	0
1.09663976515 	-0.0233380377532 	0
1.07402984175 	-0.0170469849037 	0
1.05901099651 	-0.013386838054 	0
1.04845731211 	-0.00922290318967 	0
1.04214860495 	-0.00718151644612 	0
1.03724603267 	-0.00491409607785 	0
1.03416318513 	-0.00313715787757 	0
1.02983373042 	0.00127376140413 	0
1.03067635959 	0.00155615793684 	0
1.03117827219 	0.00119280109395 	0
1.03071337904 	-0.00022198345811 	0
1.02782302825 	-0.00345224214144 	0
1.02091031098 	-0.0100399203497 	0
1.00492768982 	-0.0214542690361 	0
0.973710334781 	-0.0401467053974 	0
0.916681049351 	-0.0607142342128 	0
0.827424774826 	-0.0731075530769 	0
0.753245570107 	-0.0685432039508 	0
0.728665668493 	-0.0750498796576 	0
0.778752072351 	-0.105366095782 	0
0.919310677055 	-0.153052138854 	0
1.07496570858 	-0.190854378882 	0
1.16224574964 	-0.167752424133 	0
1.15776552716 	-0.110278827238 	0
1.1122271994 	-0.0678549987919 	0
1.08122280399 	-0.0435225099263 	0
1.06535128373 	-0.0291701608897 	0
1.05324962921 	-0.0199771969399 	0
1.04447882409 	-0.0134950779802 	0
1.03928515046 	-0.00943069562816 	0
1.03497036303 	-0.00615044883925 	0
1.03237475456 	-0.00383653615178 	0
1.02969237351 	0.000404766971765 	0
1.0311375352 	-3.79736816351e-06 	0
1.0328050371 	-0.00155428945911 	0
1.03464414983 	-0.00499253426736 	0
1.03571154003 	-0.0118321808068 	0
1.035690719 	-0.024953101911 	0
1.03137979933 	-0.047785923175 	0
1.01069108313 	-0.0896841776011 	0
0.952830795093 	-0.143123807903 	0
0.853745103115 	-0.190090254785 	0
0.776903350707 	-0.222425078002 	0
0.759593614935 	-0.254332276036 	0
0.808218614695 	-0.284727224064 	0
0.928201794259 	-0.295424837297 	0
1.04168238803 	-0.269551147714 	0
1.0935635741 	-0.202932127319 	0
1.094720222 	-0.130114728413 	0
1.07465485928 	-0.0811047651218 	0
1.06005110496 	-0.0534050098513 	0
1.05165669219 	-0.035288710626 	0
1.04436841005 	-0.0233391925425 	0
1.0387235546 	-0.0156879400102 	0
1.0351001846 	-0.0104938832719 	0
1.0319904459 	-0.00674974000502 	0
1.03009207219 	-0.00415073875866 	0
1.03003358779 	0.000115972189343 	0
1.0324797713 	-0.000475329762612 	0
1.03598726564 	-0.0022925686256 	0
1.0409775879 	-0.00608361180394 	0
1.04774335114 	-0.0128589489205 	0
1.05737850252 	-0.0262576814297 	0
1.07087476846 	-0.0487108714007 	0
1.07028796973 	-0.0927188613786 	0
1.01721781871 	-0.162898220521 	0
0.906045029171 	-0.235087426785 	0
0.81659099073 	-0.288429736262 	0
0.791279749956 	-0.325367534845 	0
0.818951885876 	-0.34842839312 	0
0.899677224506 	-0.341143603063 	0
0.973674508666 	-0.283938924578 	0
1.0125891375 	-0.203059384514 	0
1.03085663565 	-0.133796578161 	0
1.03414635021 	-0.0847788612162 	0
1.03507503951 	-0.0548437836084 	0
1.03485488662 	-0.0350490142446 	0
1.03342202409 	-0.0224934235763 	0
1.03173112835 	-0.0147726291257 	0
1.03019910819 	-0.00970576131572 	0
1.02864063095 	-0.00626688433154 	0
1.027552038 	-0.00384331377177 	0
1.03034050124 	0.000369800899436 	0
1.03366738713 	0.000177501925387 	0
1.03874648416 	-0.000696633271743 	0
1.04592717238 	-0.00290753703599 	0
1.05695438687 	-0.00626736359241 	0
1.07353051448 	-0.0138550756435 	0
1.1001450746 	-0.0252198986129 	0
1.12544577379 	-0.0479300163788 	0
1.0970619651 	-0.102473354863 	0
0.981673141585 	-0.187074780253 	0
0.865090553375 	-0.26717364812 	0
0.816833058854 	-0.314639155354 	0
0.819638951424 	-0.333226745264 	0
0.856667822807 	-0.31118703545 	0
0.896709882079 	-0.244461348797 	0
0.936812162123 	-0.171297170121 	0
0.973678630875 	-0.113265859584 	0
0.994603312591 	-0.0715866134994 	0
1.00897935783 	-0.0444374909963 	0
1.01809540333 	-0.0268385886025 	0
1.02299060839 	-0.0165970384107 	0
1.02532380346 	-0.0105228875135 	0
1.02599049821 	-0.00683300769909 	0
1.02581799405 	-0.00442846946367 	0
1.02541676885 	-0.00272585748095 	0
1.03018765272 	0.00107868860789 	0
1.03371444098 	0.00159739855273 	0
1.03923967582 	0.0023616603966 	0
1.04683363353 	0.00278964516173 	0
1.05912053011 	0.00394553317398 	0
1.07727484573 	0.00441410731748 	0
1.10609133063 	0.0068447411368 	0
1.14701081012 	0.0118149082255 	0
1.15539302038 	0.00235425591392 	0
1.07339630085 	-0.0463030146376 	0
0.946763475301 	-0.127501481039 	0
0.85739865686 	-0.188719467018 	0
0.81648986277 	-0.207693668382 	0
0.811888069288 	-0.18410236037 	0
0.832586712595 	-0.135024636532 	0
0.878962362214 	-0.0892686051496 	0
0.93092436688 	-0.0520671015653 	0
0.965759450716 	-0.0289061761648 	0
0.990169347682 	-0.0161887232989 	0
1.0070338354 	-0.00887926304874 	0
1.01685255126 	-0.0055807589638 	0
1.02183105602 	-0.00368394513927 	0
1.02383459239 	-0.00258824722888 	0
1.02436500173 	-0.00177091255872 	0
1.02426227161 	-0.00114366463258 	0
1.02921867466 	0.00212255606313 	0
1.03234080124 	0.00345820510255 	0
1.03737900462 	0.00569702029919 	0
1.04414638376 	0.00855210263567 	0
1.05520475181 	0.0133966161602 	0
1.07076796054 	0.0204929437254 	0
1.09352941763 	0.0327760261501 	0
1.12987756558 	0.0554085748507 	0
1.15483094576 	0.0852362142518 	0
1.11682444856 	0.0968347861097 	0
1.01638048632 	0.0683841125336 	0
0.905023426128 	0.0302318631501 	0
0.823766388752 	0.0136128771849 	0
0.791964242607 	0.0137282350055 	0
0.80458958922 	0.0209082218363 	0
0.852395379038 	0.0304602610032 	0
0.913221052443 	0.0383924160302 	0
0.95916266002 	0.0352837684768 	0
0.989268841604 	0.0244731963749 	0
1.00819250416 	0.0147764624879 	0
1.01823787778 	0.007995372309 	0
1.02275777321 	0.00407849027085 	0
1.02428623354 	0.00185432403733 	0
1.02451438176 	0.000762768017347 	0
1.02420115157 	0.000273280978964 	0
1.02759956368 	0.0029422709835 	0
1.03006202951 	0.00491813852381 	0
1.03406659219 	0.00807334894075 	0
1.03923428201 	0.0125898943443 	0
1.04742126812 	0.0199240019581 	0
1.05830640419 	0.0314384897369 	0
1.07194749674 	0.0494884552146 	0
1.09303455211 	0.0797673845943 	0
1.11263000849 	0.12597509793 	0
1.09193893389 	0.172229675707 	0
1.01807085402 	0.198687829328 	0
0.919053474679 	0.205141890686 	0
0.837402814221 	0.198090438488 	0
0.804915442715 	0.179994142211 	0
0.81435548851 	0.158206732759 	0
0.859222385859 	0.139942662172 	0
0.925277482701 	0.120531642233 	0
0.979569433621 	0.0914427941314 	0
1.01049549174 	0.0581018795984 	0
1.02373548501 	0.0334460322979 	0
1.02764613468 	0.0186941904793 	0
1.02812238931 	0.0102176977404 	0
1.02721846562 	0.00533608025351 	0
1.02607052441 	0.00262950554185 	0
1.02498905214 	0.00124971133126 	0
1.02575001561 	0.00299964633817 	0
1.02739808359 	0.00511567949974 	0
1.02987368974 	0.00853022007525 	0
1.03267164499 	0.0137572309505 	0
1.03669775023 	0.022368660833 	0
1.04152627825 	0.0363588187868 	0
1.04547369435 	0.0581191399937 	0
1.05103765871 	0.0909383180594 	0
1.05797296484 	0.139476814542 	0
1.03746648455 	0.198340137358 	0
0.979000803956 	0.250513904246 	0
0.904863800468 	0.280238744727 	0
0.848018352381 	0.280871209696 	0
0.830623238134 	0.262327339826 	0
0.843301940641 	0.234199016896 	0
0.889806884539 	0.200742866693 	0
0.961493998427 	0.161433024257 	0
1.02132591991 	0.111731057941 	0
1.04737636109 	0.0663480116713 	0
1.04771745792 	0.0379197110582 	0
1.04147072673 	0.021573326875 	0
1.0359962757 	0.0122567776263 	0
1.0316797598 	0.00671836118417 	0
1.0285193741 	0.00350878266254 	0
1.02628328726 	0.00175906355005 	0
1.02394789778 	0.00223873575169 	0
1.02467434266 	0.00392024484945 	0
1.02540980297 	0.00676695429952 	0
1.02543665489 	0.0112933761866 	0
1.02461282953 	0.0190974219036 	0
1.02232790402 	0.0322622200614 	0
1.0169596772 	0.0537545663553 	0
1.01036341548 	0.0837669489806 	0
1.00321429288 	0.127272007637 	0
0.97460683598 	0.185223758367 	0
0.928927780806 	0.244006408479 	0
0.88431221897 	0.284263211424 	0
0.853985235518 	0.291609393394 	0
0.852265450646 	0.277294263765 	0
0.874580089165 	0.248348290202 	0
0.931791546339 	0.203640858108 	0
1.01529242615 	0.145979165952 	0
1.07456326772 	0.0862394698599 	0
1.08476172564 	0.0472999348328 	0
1.06925152385 	0.0277164247706 	0
1.05384402702 	0.0160509458541 	0
1.04321770866 	0.00953437620144 	0
1.03599948512 	0.0054225444072 	0
1.03102875912 	0.00301553286514 	0
1.02772513809 	0.00158874485433 	0
1.02270836935 	0.000931851504177 	0
1.02275421631 	0.00163938293866 	0
1.02222544005 	0.00296446836094 	0
1.02010714062 	0.00503828855759 	0
1.01531598043 	0.00893485186795 	0
1.00656040867 	0.0160351706993 	0
0.993434925547 	0.0295556214591 	0
0.977429768897 	0.0491862415467 	0
0.956091915891 	0.0805603143736 	0
0.916795665753 	0.125729492583 	0
0.877260255448 	0.174048973864 	0
0.856081331842 	0.216573680157 	0
0.852404494146 	0.234329498545 	0
0.872779127111 	0.225947436862 	0
0.917478501759 	0.190639715732 	0
0.993316247663 	0.130901768088 	0
1.07931505681 	0.0703441008957 	0
1.11917284256 	0.0292017851877 	0
1.1060114864 	0.01423246659 	0
1.07993438732 	0.00925612656036 	0
1.06029747625 	0.00542766005354 	0
1.04711467543 	0.00348155693603 	0
1.03849847781 	0.00199128583156 	0
1.03256729277 	0.00120316505658 	0
1.02873955719 	0.0006736115933 	0
1.022569866 	-0.000514325433917 	0
1.02258507186 	-0.00108026076611 	0
1.02192454719 	-0.00191819301995 	0
1.01947790525 	-0.00345982452173 	0
1.01359081528 	-0.00577879082216 	0
1.00178857614 	-0.00897521188766 	0
0.983615700481 	-0.0108562857924 	0
0.959921748375 	-0.00856247055305 	0
0.926609605779 	0.0038122452926 	0
0.880036143645 	0.0254129768957 	0
0.841552800095 	0.0457986556618 	0
0.830150713084 	0.0650264209424 	0
0.848530920407 	0.0763509479761 	0
0.898668245908 	0.0728814205087 	0
0.971874167867 	0.0455221356977 	0
1.05411224107 	-6.79986181636e-05 	0
1.11807654133 	-0.0282954301629 	0
1.13052648289 	-0.028674842052 	0