1.01389049047 	-0.00787960201317 	-8.53433133615e-22
1.01503003587 	-0.0122260074037 	-6.68660896234e-22
1.01638532815 	-0.0170372180929 	2.8067773498e-22
1.01796684026 	-0.0226240048295 	-2.70989684864e-23
1.01944945557 	-0.029129819058 	-2.75562011181e-22
1.0203505533 	-0.0368732800417 	-1.84317696684e-22
1.01965383854 	-0.0457201376806 	-2.05840681966e-22
1.01565045283 	-0.0547731269698 	-1.16314436688e-21
1.00636772991 	-0.0655135560412 	1.74200954035e-20
0.987452340175 	-0.071112795882 	1.44763127424e-21
0.9596903941 	-0.065756271506 	7.5440602729e-23
0.930388191232 	-0.0408280252757 	1.93195304254e-21
0.916402752818 	0.00279378599575 	-4.93423606912e-24
0.929663672573 	0.0467042333104 	2.06362017688e-22
0.958708908558 	0.0719219804422 	-1.63065624613e-21
0.986667743369 	0.0774272958491 	1.96753727814e-21
1.00614786774 	0.0714444156763 	2.11702438439e-20
1.01596834238 	0.0594708164613 	-1.72618121848e-21
1.02048484063 	0.0497754500775 	-1.82860756688e-21
1.02123994761 	0.0397555921345 	3.88241444808e-22
1.0202993078 	0.0310429339595 	9.85459281164e-22
1.01869191137 	0.0238095619119 	-3.79491350141e-23
1.01693830811 	0.0176960522267 	-5.11329265714e-22
1.01542133093 	0.0125590417682 	1.23206677715e-21
1.01415982123 	0.0079619113203 	1.24179738681e-21
1.01824280836 	-0.0084190666841 	2.51871992691e-22
1.01981631537 	-0.0130634464363 	5.30329620476e-22
1.02188592032 	-0.0184295203465 	2.21019464244e-22
1.02437742888 	-0.0246557806738 	-7.90202329711e-23
1.02708333075 	-0.0321283969734 	4.3208412892e-22
1.02950770048 	-0.0414120770267 	-1.72792759731e-22
1.03067228544 	-0.0529703125911 	2.74574775605e-22
1.02868367062 	-0.0677527943398 	1.22732403878e-22
1.01952688162 	-0.0861521972454 	-4.70827728443e-22
0.99628640239 	-0.10452155129 	-2.10969821647e-21
0.949778943253 	-0.113442597183 	-3.2975581505e-21
0.882874770818 	-0.0838429395297 	9.74736543884e-21
0.844833360204 	0.00306847456255 	1.67005076911e-22
0.881626542739 	0.0902890006342 	9.99417539279e-21
0.947973507756 	0.121093147819 	-9.10005750512e-21
0.995534214724 	0.113049881564 	-2.52993675768e-21
1.02015331538 	0.0941705202009 	-5.94891393068e-22
1.03045995611 	0.0744788237576 	-3.93432192315e-22
1.03285946889 	0.057889591802 	-9.62920727119e-22
1.03170034947 	0.0447222362577 	4.69905211873e-22
1.02895412436 	0.034136956153 	-1.03585346558e-21
1.02578508405 	0.0257459326202 	1.86212302688e-22
1.02288739069 	0.0189289364708 	-8.90146162348e-22
1.02046443517 	0.0132344534044 	-1.13805798422e-21
1.01864178427 	0.00841065430816 	-7.28872620812e-23
1.0227558719 	-0.00867314263089 	5.56000073942e-24
1.02491009848 	-0.0133481889556 	1.14273734294e-22
1.02779916919 	-0.0189959200635 	-6.42833682224e-23
1.03142960165 	-0.0255751536605 	7.51439400363e-25
1.03580097853 	-0.0336249670865 	7.13069731182e-23
1.04062176866 	-0.0439469019127 	-4.03774170749e-23
1.0452137245 	-0.0576269776133 	3.58249195013e-23
1.04808051664 	-0.0767059821651 	-1.06764935335e-22
1.04553766556 	-0.10418403066 	5.15628973242e-23
1.02781737887 	-0.144988881342 	5.51675927676e-22
0.967655234972 	-0.196426779596 	1.11641963554e-20
0.81150426531 	-0.205490098041 	-1.99076586485e-21
0.667598561499 	0.00218653997701 	-2.66030377317e-21
0.809188700274 	0.209485199996 	-3.89507727224e-21
0.962992245773 	0.204740126455 	1.37421951912e-20
1.0265730625 	0.156225556765 	-9.24093207598e-22
1.04761870239 	0.114554779789 	-7.01439722398e-23
1.05202554781 	0.0845206011914 	1.59920553991e-21
1.04955781547 	0.062671860569 	5.94724534272e-22
1.04446853953 	0.0468477762948 	-2.27900207097e-22
1.03878770152 	0.035018852427 	-2.45189377992e-22
1.03354863322 	0.0260615049357 	3.36542829661e-24
1.02921096177 	0.0189837795207 	5.80078797742e-22
1.02576004352 	0.0131163122645 	-6.18857888053e-22
1.02321343655 	0.00839191024066 	-6.30973575469e-22
1.02734990572 	-0.00849796931541 	6.61259166083e-25
1.03007905483 	-0.0131213071512 	3.49032581878e-23
1.03381422818 	-0.0186365642243 	1.67996749041e-23
1.0387312269 	-0.0251563401768 	8.6658197292e-23
1.04491921254 	-0.0331286815164 	1.07811485704e-22
1.05254175702 	-0.0435406040855 	6.23531932628e-23
1.06169594197 	-0.0576040313283 	-4.60289905919e-22
1.07236973473 	-0.0779206366885 	-4.44892171715e-22
1.0841060213 	-0.110077390177 	8.15758821547e-22
1.09347020137 	-0.168095166461 	-1.86063578091e-21
1.08208789823 	-0.290773116754 	1.67243918157e-21
0.87222913864 	-0.590486788529 	3.60009245991e-22
0.863562407193 	0.577259925898 	1.50824070663e-21
1.06861081146 	0.301825400267 	-2.32976809321e-22
1.09157742014 	0.184700878805 	-1.63425835467e-22
1.08939170897 	0.123190806213 	-7.53985803721e-23
1.08002187766 	0.0860161994243 	3.85204534892e-22
1.06893328044 	0.0615391464539 	-6.21394833533e-23
1.05830775756 	0.0448679161123 	7.18460246249e-23
1.04902845146 	0.0330091074887 	1.1359946291e-22
1.04140797506 	0.0244139901311 	6.90606065995e-23
1.03542991567 	0.0177148277302 	-9.69034837051e-23
1.03092989608 	0.0122488834389 	2.19289608578e-23
1.02768828223 	0.00781723023965 	-1.43704591363e-23
1.03180177485 	-0.00777029715051 	2.5495983037e-23
1.03506225666 	-0.0122934418902 	-6.45069096328e-23
1.03959861019 	-0.0173251820259 	-6.63212839168e-23
1.04574849685 	-0.0233398547952 	1.69107925883e-24
1.05363817133 	-0.0306424734443 	-1.02253322779e-22
1.06389728567 	-0.0399100922954 	-7.17487177154e-24
1.07729577451 	-0.0519788322409 	-8.30889843505e-24
1.09553092855 	-0.0686183462973 	4.12029408935e-23
1.12283173963 	-0.0940060791045 	-6.65219262091e-22
1.1693402086 	-0.138731808479 	-3.10919586644e-22
1.26916418487 	-0.229542862271 	2.68208528631e-22
0.0365936015664 	0.0014811027436 	-1.59544403709e-21
1.24341145891 	0.264843367134 	-1.82075193112e-22
1.17272361485 	0.167416052104 	2.40058991367e-22
1.13607653702 	0.110054985134 	6.3791031155e-22
1.10929064669 	0.0750183427114 	-1.8208226764e-22
1.08818145536 	0.0527523824622 	-2.01530683364e-24
1.07147581573 	0.0381190340126 	2.35280970429e-24
1.05843293302 	0.028016219467 	2.83611905508e-23
1.04852488856 	0.0207529458484 	-4.90182806839e-26
1.04100352297 	0.0151518953299 	-2.3228506345e-23
1.03558022824 	0.0106486951452 	-3.11370308431e-23
1.03176598922 	0.00666225999858 	3.5974022192e-23
1.0357016902 	-0.00697888537443 	-6.4283546838e-24
1.03948637232 	-0.0106766412733 	8.9862267549e-23
1.04479582016 	-0.0151259068676 	4.01854774787e-23
1.05194955876 	-0.0202288956852 	1.61266348845e-23
1.06112208551 	-0.0263632029288 	1.82506298069e-22
1.07317269441 	-0.0336753118959 	2.66104059817e-22
1.08886537005 	-0.0421672126396 	-1.50487786216e-21
1.11070515831 	-0.0516231900382 	4.29691429495e-22
1.14408242552 	-0.0612341567757 	1.95740445043e-21
1.20332312355 	-0.0688097895194 	-1.20635392752e-20
1.30961357371 	-0.067700376597 	3.48872315009e-20
0.172175066173 	-0.0288667821926 	2.04269391793e-21
-0.000421764551891 	-0.00509927651978 	-4.17885565878e-22
0.0936975353565 	0.0275895789646 	1.3036184579e-22
1.29599623611 	0.150658253813 	-2.61003506591e-20
1.230239997 	0.112521955738 	8.60392695687e-21
1.1735514211 	0.0755360209344 	8.46296881839e-22
1.13298209124 	0.0516021198445 	1.40472426946e-22
1.10329512596 	0.0365108028369 	1.09278189322e-21
1.08163737011 	0.0268521934066 	-1.79344879036e-22
1.06558257896 	0.0202353347353 	-1.20589560772e-22
1.05396310359 	0.0153768494903 	-5.86218189969e-24
1.0453705786 	0.0115436352084 	2.40967095678e-23
1.03920581476 	0.00822375990485 	1.96834337991e-23
1.03496902064 	0.00542747740616 	1.03055758217e-23
1.03909402303 	-0.00563407919781 	3.02934512993e-23
1.04318060114 	-0.00851759883783 	-5.37770283553e-22
1.04912174719 	-0.0121803716512 	6.09074677466e-22
1.05704427864 	-0.0161474378787 	-4.70299241102e-24
1.06705138814 	-0.020942149903 	-4.48057430601e-22
1.07975268261 	-0.0262355118651 	-4.30795886349e-22
1.09563455825 	-0.0314137907918 	1.19138311522e-21
1.11546647811 	-0.0342867024369 	3.91380151613e-21
1.14199832528 	-0.0297614528682 	1.00678168735e-21
1.1838023221 	-0.00464801631796 	3.61169106416e-21
1.23485924154 	0.0689033323903 	3.81499930709e-21
0.354650752938 	0.151378928551 	-5.52290874027e-21
-0.195898943128 	0.212813526299 	-3.10446430585e-21
0.262200726009 	0.150882908989 	-4.89116927248e-21
1.29139087655 	0.0688905886974 	-1.82891732634e-21
1.26430950919 	0.0460523076712 	-3.22325850832e-21
1.19437272967 	0.0273306064976 	-1.01426164569e-22
1.14537194828 	0.0193807424511 	-4.10592901079e-21
1.11089435401 	0.0152924186636 	-1.13072967089e-21
1.08678487136 	0.0128122072029 	2.73353242971e-22
1.06950872139 	0.01087667172 	2.98821567157e-22
1.05709067637 	0.00908774795863 	2.39467660793e-24
1.04811792751 	0.0073568379176 	-2.23301782099e-22
1.04163679328 	0.00542775956214 	1.55023689155e-22
1.03737931773 	0.00376624957003 	1.01517393009e-22
1.04173141409 	-0.00403291985385 	-4.11907718414e-22
1.04607126633 	-0.00607468449383 	-1.07649911013e-21
1.05239206068 	-0.00867339469041 	-7.09513609498e-22
1.06086230455 	-0.0114115275214 	1.07006808324e-22
1.07130281135 	-0.0148515806243 	-8.75209037119e-22
1.08451549315 	-0.0185876370042 	5.34327090924e-22
1.09905413402 	-0.0220750320939 	-1.29530173664e-21
1.11429441383 	-0.0230311041886 	-8.17410786925e-23
1.12755326221 	-0.0141529987364 	-2.16259945794e-21
1.12985192965 	0.015397264084 	-2.61959434847e-21
1.07347764003 	0.121800133385 	4.27636183822e-21
0.245298131019 	0.33394745475 	8.97529637684e-21
-0.161026525664 	0.379319916386 	5.76670578273e-22
0.533722640579 	0.14910805245 	1.19962152697e-20
1.30523592777 	-0.0457659072128 	-2.15197377862e-21
1.27394202654 	-0.0424817512779 	-2.55840003158e-21
1.19667730554 	-0.0292556337265 	-2.03978401622e-21
1.14222436589 	-0.0165118033697 	3.17913578531e-22
1.10910425331 	-0.00706738563017 	1.64632293973e-21
1.08596236416 	-0.00160044773902 	-5.77354447908e-22
1.06943237465 	0.00152421140156 	7.34947273707e-22
1.05765357827 	0.00290007450189 	-6.77999156407e-23
1.04910905677 	0.00322148795267 	3.16291771796e-22
1.04293495912 	0.00274062475833 	3.91596994341e-22
1.0388815148 	0.00213223848298 	2.55344330419e-23
1.04339537881 	-0.00226479287359 	1.18028725833e-21
1.04799640489 	-0.00342100568215 	9.81592960791e-22
1.05447153022 	-0.0047579208387 	-3.94393864673e-22
1.06334652245 	-0.00613183059259 	-1.44584563486e-22
1.07420120289 	-0.00818471546147 	4.90170156201e-22
1.08750672103 	-0.0107473814665 	1.9633788719e-22
1.10264587758 	-0.0135089411883 	-2.16322532978e-22
1.1144391405 	-0.0186946566409 	5.26254529878e-22
1.1191608539 	-0.0218067731088 	1.57672823238e-20
1.09668775048 	-0.0214198257337 	6.787958744e-22
0.908037592152 	0.0424284772045 	-2.46727298398e-23
0.0832761785002 	0.197575830575 	1.34833235914e-21
0.0479634157786 	0.0681357579136 	-5.28815002824e-22
0.81003112969 	-0.166265230243 	2.79597809931e-21
1.28228724351 	-0.221615153018 	-2.62779319595e-21
1.23544026015 	-0.137669006465 	3.38424077261e-21
1.16503027491 	-0.0811000635336 	3.00656414367e-20
1.12297986432 	-0.0452932262335 	6.1001495783e-22
1.098583528 	-0.0267454727115 	2.7648925152e-21
1.07929515967 	-0.0133076560392 	-2.52452580137e-22
1.06575134299 	-0.00624181596837 	-5.60429611667e-22
1.05590048894 	-0.00217062223693 	1.02414502995e-22
1.04850967355 	-0.000216973592149 	2.12683371191e-22
1.04319952252 	0.00056440628029 	-3.6057034572e-22
1.03940617627 	0.000767112134233 	-2.49432481001e-22
1.04412655913 	-0.000267933489252 	-1.49704433373e-21
1.04873558969 	-0.000408947077462 	-5.60480665401e-22
1.05518818924 	-0.000555217388984 	-1.30024880583e-22
1.06433695752 	-0.000400211725054 	-3.8780866156e-22
1.07611527709 	-0.000709365858992 	1.68652556877e-22
1.08965207668 	-0.000338200386681 	-9.83348640817e-22
1.1058726676 	-0.00555260838679 	-9.0380696171e-22
1.12401438775 	-0.0129698617591 	-7.63097913693e-22
1.13746734673 	-0.0298162310097 	1.53874786715e-21
1.12097500732 	-0.0773890885235 	-1.79170308971e-22
0.817267357747 	-0.0898401346729 	3.90178855864e-22
0.168922916381 	-0.181799129662 	4.3366431397e-22
0.281892323394 	-0.363794245642 	-1.07560212311e-21
0.878061177596 	-0.447018802869 	4.70112268404e-21
1.1626233916 	-0.340544393386 	-3.39939604326e-21
1.13251913695 	-0.195157783552 	1.56222688966e-21
1.10913564809 	-0.111230051926 	3.61216951376e-21
1.09146130484 	-0.0636260431909 	-9.24420649358e-22
1.07765011063 	-0.035185442686 	9.77272613357e-22
1.06877199568 	-0.0204454005455 	8.76796120832e-22
1.0599099985 	-0.0108891365578 	-1.26462882972e-21
1.05257140271 	-0.00527621360767 	2.04041376651e-22
1.04678809688 	-0.00244672704036 	3.27807592693e-23
1.04252240916 	-0.00100882512328 	3.926163525e-22
1.03927006819 	-0.000279161582717 	1.46620327751e-22
1.0437299215 	0.00136282365682 	1.80481093683e-21
1.04824958328 	0.00279078578435 	-3.45830300469e-21
1.05440994102 	0.00373151353439 	1.90957080997e-21
1.06307886994 	0.00633619200157 	7.52418776017e-24
1.0748163826 	0.00734741190358 	2.470884451e-21
1.08964379869 	0.0081747345545 	-6.0635958669e-22
1.11024094199 	0.00986537271847 	-1.82206691657e-21
1.13526076042 	0.00335663419011 	1.05173617684e-22
1.17765250043 	-0.0107533735659 	8.71480933095e-22
1.19342120317 	-0.0700620023494 	2.22851710601e-22
0.934041514057 	-0.159661631438 	-2.72445770407e-21
0.349770168419 	-0.445775298693 	9.02973888872e-23
0.368117802516 	-0.541695465016 	-3.3676948796e-22
0.80381591393 	-0.460396977329 	6.2485669708e-23
1.0008948222 	-0.322550252244 	-4.45003928373e-21
1.02052755752 	-0.185382089187 	6.12661810479e-22
1.04583833074 	-0.106531942077 	7.65998578202e-22
1.05536184686 	-0.060286280319 	9.32276032976e-23
1.05808664785 	-0.0340871845344 	-1.67572969631e-21
1.05562074871 	-0.0189023957092 	-5.01102552346e-22
1.05264240124 	-0.011092564071 	1.29512012274e-21
1.04889815831 	-0.00615754575033 	-1.15017420638e-24
1.04466226644 	-0.00333564551047 	-1.00715554409e-21
1.0413526416 	-0.00184296912749 	1.48878031793e-21
1.03871560176 	-0.000846273646145 	-1.83893524982e-23
1.04241643765 	0.00298423541401 	-1.37154985731e-21
1.04674192681 	0.00568820831986 	7.27494711984e-23
1.05148338806 	0.00826229289893 	3.91109794874e-21
1.05964932642 	0.010612970457 	-1.8408517053e-21
1.07115004461 	0.0153012068048 	2.66066361781e-21
1.08535706241 	0.0211747137752 	-2.87938009677e-21
1.10906743784 	0.0284892447306 	3.24134103606e-22
1.1366317268 	0.0352742483757 	-7.68628413368e-24
1.2042271538 	0.0413222670975 	2.69412562496e-21
1.25285134765 	0.0302028132053 	-3.31472226586e-21
1.09225462584 	-0.0201002019276 	4.17265958151e-21
0.601435742249 	-0.295209610889 	3.41562753188e-21
0.395382771967 	-0.461560052739 	-2.06859938299e-22
0.619895656165 	-0.38754475751 	-2.42213155274e-22
0.851716960076 	-0.209074316396 	-9.8720294454e-23
0.93301629475 	-0.117031492025 	-2.11842183514e-22
0.990869691677 	-0.0693878827707 	1.3084017675e-22
1.02783173901 	-0.037518255951 	9.32617569509e-24
1.04113222291 	-0.0219275766296 	2.19062041336e-22
1.04732142016 	-0.0127458692191 	-1.45682990808e-21
1.04698781327 	-0.00756533207503 	1.19987553226e-21
1.04519157689 	-0.00469475817497 	-2.43942702773e-22
1.04279771343 	-0.00329363868582 	-1.64956639704e-21
1.04029642123 	-0.00189073006308 	1.98014217199e-23
1.03803514048 	-0.00108599238067 	2.82735744766e-22
1.04007256694 	0.00435509342526 	1.16753215732e-21
1.04396706701 	0.00714258910068 	-6.44899227183e-22
1.04791062644 	0.0101571097086 	-4.30038875854e-22
1.05456366081 	0.015281644494 	3.64644524236e-22
1.06414751388 	0.0221459860756 	2.30737842012e-22
1.07672582268 	0.0330707887176 	1.15504969761e-21
1.09602852047 	0.0463199721974 	1.58812582252e-22
1.11773072696 	0.0683952237338 	-1.44916166837e-22
1.17530302646 	0.100286315505 	-1.77971233597e-22
1.23072827407 	0.159810168805 	2.46364687679e-22
1.15996505618 	0.202565899829 	-2.43444322899e-21
0.870340416934 	0.136353651373 	-2.36473166555e-21
0.547905684662 	-0.0702095415348 	-6.44451960556e-22
0.512374614671 	-0.183820458122 	-3.15373458264e-22
0.714252542908 	-0.0906888289761 	-3.00363024286e-22
0.89109907152 	-0.011567491333 	-1.84327673521e-22
0.969093531975 	-0.00530358804392 	-5.51318224646e-24
1.01687694298 	-0.00307207645475 	1.33267712694e-22
1.03656652412 	-0.00208700545519 	7.85408024402e-23
1.04411474167 	-0.00326292927561 	1.96131108559e-22
1.04588133817 	-0.00310784357636 	1.58677983474e-22
1.04425752961 	-0.00260198169407 	7.10483810978e-23
1.04147158323 	-0.00212937802577 	-1.32528945433e-22
1.03948652245 	-0.00190921558841 	-4.00820320252e-22
1.03724494626 	-0.00144107614182 	-2.2421979653e-22
1.0372909504 	0.00510218189429 	-3.251299313e-21
1.03978601375 	0.00782769687583 	1.06817408098e-21
1.04359971112 	0.0118609885038 	-1.07764252424e-23
1.04872781624 	0.0176130859986 	8.34746582597e-23
1.05444883695 	0.0260404345391 	-6.22140948234e-22
1.06260097688 	0.0393683380481 	-3.97283916306e-22
1.07304996221 	0.0592604392515 	1.3612272056e-21
1.08417185738 	0.0899635136543 	3.53113681356e-23
1.1080686919 	0.137560679182 	6.93659613066e-23
1.14737791582 	0.227522320118 	-2.09845438529e-22
1.10178563809 	0.313508343125 	-1.62882972342e-21
0.923823836289 	0.338436377503 	1.53020336392e-23
0.693892077092 	0.269413763485 	-4.77046165327e-22
0.589126364339 	0.171511345334 	-3.09241884328e-22
0.656826297249 	0.121943858992 	4.69453287272e-23
0.871994330247 	0.112415395224 	-1.64370905717e-23
0.9998336417 	0.0804311209107 	-1.8478500284e-23
1.03586341852 	0.0340092431818 	4.4361381594e-24
1.04747043479 	0.0157518324789 	-4.8099727395e-22
1.04957025495 	0.00578373900584 	2.96250083114e-22
1.04755720472 	0.000479611177493 	1.01134446258e-22
1.04496993867 	-0.00117676641983 	1.71720230599e-23
1.04192727377 	-0.00181311491346 	2.35111345977e-23
1.03856640813 	-0.00168474367012 	1.73292790775e-22
1.0365698275 	-0.00162392992159 	9.35759678551e-23
1.03448109021 	0.00446893662327 	-7.06691803102e-22
1.03623382073 	0.00753260331094 	-7.48962496128e-22
1.03830879886 	0.0116127112046 	2.24568404153e-22
1.04078865066 	0.0175317976852 	-1.4001963211e-23
1.04304404898 	0.0254888497867 	2.07520854543e-22
1.04505364496 	0.0382895877055 	5.13830196598e-22
1.04707454282 	0.0580435027587 	3.97879418432e-23
1.04542592109 	0.0872878405507 	-5.34190493891e-22
1.04253976976 	0.135918713022 	4.30150923217e-22
1.04077219601 	0.218649271287 	2.97606263043e-22
1.01216045544 	0.321478630487 	-4.89024592467e-22
0.898589824449 	0.397770297267 	0
0.741120985286 	0.419985055879 	-1.50153828301e-36
0.671844746735 	0.389155767247 	-2.38043762861e-25
0.748240439932 	0.317209350238 	4.34547618686e-22
0.928383119809 	0.213494953882 	-3.68321051152e-22
1.05881783407 	0.120972409477 	-3.72861663476e-22
1.07908229313 	0.0593634144249 	5.80390170035e-22
1.06810430501 	0.0244935895861 	-3.69772493861e-23
1.05977203978 	0.0108418925484 	-2.89599263084e-22
1.05346771751 	0.00292929264609 	3.44361742653e-24
1.04760422927 	-0.000363152724593 	5.9146024161e-23
1.04295246954 	-0.00165928670052 	3.94602518705e-23
1.03891040475 	-0.00182021800157 	-4.52528388485e-23
1.03597803355 	-0.0010723718601 	-3.89026019833e-23
1.03235227193 	0.00400716638017 	0
1.03335131814 	0.00655351599033 	0
1.03421716485 	0.00981105201045 	0
1.03496292464 	0.0146014801203 	0
1.03422070842 	0.0213946512354 	0
1.03127739696 	0.0320417651684 	0
1.02619153107 	0.0492776613719 	0
1.01230621829 	0.0762199698705 	0
0.986788010471 	0.11913518838 	0
0.955297718983 	0.187097701802 	0
0.915183370935 	0.286111770785 	0
0.826658134747 	0.382626316956 	0
0.724790149856 	0.423395357081 	0
0.709123673611 	0.399041838386 	0
0.832589393302 	0.311490318904 	0
1.03707524723 	0.184034748016 	0
1.1439066701 	0.0884770101317 	0
1.12714523402 	0.0394605099635 	0
1.09221642156 	0.0158285727934 	0
1.07111450563 	0.0055313763532 	0
1.05854468856 	-0.000789408476128 	0
1.04938591592 	-0.0021399079781 	0
1.04307433351 	-0.00289679359164 	0
1.03850970665 	-0.0025559613025 	0
1.03533702724 	-0.00169232678965 	0
1.03055564881 	0.00297689000525 	0
1.03115272678 	0.00463049782756 	0
1.03130911282 	0.00648327114165 	0
1.03059484017 	0.00904121539013 	0
1.02744165542 	0.0129316748843 	0
1.02025554213 	0.0185565932578 	0
1.00671917505 	0.0284256523087 	0
0.980459108044 	0.0463548308418 	0
0.937351581635 	0.0744790993193 	0
0.877059894773 	0.118922994644 	0
0.813912750522 	0.194424745821 	0
0.753034162858 	0.270826558293 	0
0.724449256109 	0.294005713821 	0
0.785798078987 	0.243196905449 	0
0.957211600077 	0.131814083089 	0
1.14357178335 	0.0308933334054 	0
1.196172865 	-0.00726332586438 	0
1.14633546426 	-0.0111422991172 	0
1.1002307986 	-0.008879784474 	0
1.075334718 	-0.00849932239236 	0
1.05988140923 	-0.00847352653377 	0
1.04909276524 	-0.00622070847049 	0
1.04248266771 	-0.0053802956526 	0
1.03752267984 	-0.00387710767116 	0
1.03433006179 	-0.00256015587256 	0
1.02931563054 	0.0017060285194 	0
1.02990371574 	0.00235038201332 	0
1.02998085856 	0.00262410884263 	0
1.02884694473 	0.00238664414013 	0
1.02490761786 	0.00143922960274 	0
1.01625530705 	-0.00111577530355 	0
0.998299451195 	-0.0050866286767 	0
0.966042422573 	-0.00980815701555 	0
0.912651558178 	-0.0114433533657 	0
0.833034270169 	-0.00278875571338 	0
0.763364913602 	0.0252664622211 	0
0.731343241409 	0.0455678483341 	0
0.762935456129 	0.0327907217216 	0
0.886735960494 	-0.0243401654654 	0
1.05657015148 	-0.10078729477 	0
1.17652687366 	-0.120676891244 	0
1.18311860983 	-0.0870176795205 	0
1.1296346281 	-0.0540586485456 	0
1.09064342256 	-0.0338115719442 	0
1.07061635581 	-0.0230183967648 	0
1.05651057987 	-0.0163390858808 	0
1.0464523572 	-0.011084781084 	0
1.04057407261 	-0.00806959993733 	0
1.03580107029 	-0.00531957625325 	0
1.03290333504 	-0.00336687248642 	0
1.02890812736 	0.000551809828272 	0
1.02990054755 	0.000309772044617 	0
1.03076098147 	-0.000897034995458 	0
1.03112829615 	-0.00371869394039 	0
1.02968517212 	-0.00944840109257 	0
1.02531465176 	-0.0203356228104 	0
1.01345474205 	-0.0392090764286 	0
0.985520804687 	-0.071442228878 	0
0.92736661455 	-0.108369264121 	0
0.83683181887 	-0.137193228752 	0
0.767090626399 	-0.153261838342 	0
0.750427145584 	-0.176070942894 	0
0.802317053689 	-0.206312176539 	0
0.9309282306 	-0.231138942788 	0
1.06115999804 	-0.234448745981 	0
1.12949939667 	-0.18890258412 	0
1.12840122406 	-0.122248760249 	0
1.09506698172 	-0.075426090166 	0
1.0716859579 	-0.0489630390799 	0
1.0591721301 	-0.0325142325953 	0
1.04910090583 	-0.0217408344152 	0
1.04160311086 	-0.0146301150505 	0
1.037050991 	-0.00992997300062 	0
1.03320693091 	-0.00636920273156 	0
1.03090105292 	-0.00392342736869 	0
1.02922435495 	-5.53641033169e-05 	0
1.03112892131 	-0.0007705859506 	0
1.03369129069 	-0.00278515696725 	0
1.03713795786 	-0.00689941890619 	0
1.04109579898 	-0.0145233375682 	0
1.04594247234 	-0.0290437881573 	0
1.04981906619 	-0.0539728774488 	0
1.03544586382 	-0.10079661651 	0
0.977253319183 	-0.163564961202 	0
0.877150971294 	-0.220061485029 	0
0.801065645932 	-0.2616481938 	0
0.782689878874 	-0.296069536425 	0
0.819656875426 	-0.321917723429 	0
0.916836452254 	-0.322396353718 	0
1.00854553343 	-0.279444172967 	0
1.05374893522 	-0.20537499681 	0
1.06385437473 	-0.134150354212 	0
1.05530802487 	-0.0843989645112 	0
1.04813441937 	-0.0551091338392 	0
1.04344213256 	-0.0358187166377 	0
1.03878752908 	-0.0232634211915 	0
1.03494914631 	-0.0154186319836 	0
1.03229684161 	-0.0101879385566 	0
1.02992517822 	-0.00653023861714 	0
1.02841973484 	-0.00399341782483 	0
1.02973306332 	-3.26112978775e-05 	0
1.0327168426 	-0.000600800952521 	0
1.03716106085 	-0.00224395461327 	0
1.04351444994 	-0.0056561896016 	0
1.05281810979 	-0.0113060897167 	0
1.0666646954 	-0.0226875325401 	0
1.08738651606 	-0.0410783155277 	0
1.09672817226 	-0.0776436404038 	0
1.04858856832 	-0.145727317597 	0
0.935176069746 	-0.224757021105 	0
0.840782498214 	-0.286365239613 	0
0.810185578129 	-0.324713339752 	0
0.825877114727 	-0.344562378257 	0
0.881955319544 	-0.331740431147 	0
0.936371771122 	-0.27056279679 	0
0.975546687244 	-0.192969014786 	0
1.00305466879 	-0.128744275454 	0
1.01442738237 	-0.0820229091786 	0
1.02184822406 	-0.0520368296857 	0
1.02611234102 	-0.0322269463679 	0
1.0276873879 	-0.0201232467844 	0
1.02799392761 	-0.0128574174409 	0
1.02759285515 	-0.00832080450725 	0
1.02675967091 	-0.00533638950749 	0
1.02604559643 	-0.00326157293168 	0
1.02995738412 	0.000467450500882 	0
1.03352084382 	0.000485037579448 	0
1.03898632659 	0.000246159256633 	0
1.04665240311 	-0.000840348468959 	0
1.05876918225 	-0.00217168016347 	0
1.07699618094 	-0.00600139163637 	0
1.10607696277 	-0.0106943725637 	0
1.13936706367 	-0.0201539314163 	0
1.12399027957 	-0.0569026242006 	0
1.02042993038 	-0.129933914922 	0
0.901489847597 	-0.214450024575 	0
0.838161349271 	-0.269164602333 	0
0.822887763737 	-0.286238994245 	0
0.837752183498 	-0.259854587538 	0
0.864936294453 	-0.198930307668 	0
0.907698223149 	-0.138378436044 	0
0.951787750354 	-0.089014322524 	0
0.978680193306 	-0.0548523701338 	0
0.997936901234 	-0.0331102774219 	0
1.01126315513 	-0.019207245875 	0
1.01894815759 	-0.0116332511875 	0
1.02287815198 	-0.00723921931621 	0
1.02438933454 	-0.00467394072455 	0
1.02465219002 	-0.00299201187467 	0
1.02444439311 	-0.00183939693183 	0
1.02950688512 	0.00140414306715 	0
1.03292906298 	0.00224112864137 	0
1.03836114069 	0.0036680700327 	0
1.04581098041 	0.00526526896859 	0
1.05790476516 	0.0082452608086 	0
1.07541966514 	0.0121068882328 	0
1.10230012949 	0.0198491762311 	0
1.14217406964 	0.0344256895059 	0
1.15807418986 	0.0452169788476 	0
1.0970562838 	0.0234655781664 	0
0.983965176073 	-0.0374104087724 	0
0.884250895449 	-0.0894636137394 	0
0.822720621615 	-0.105910597924 	0
0.801925949439 	-0.0912166197618 	0
0.816947735162 	-0.0617849337259 	0
0.864014275769 	-0.0343195154661 	0
0.919758809815 	-0.0103700207591 	0
0.959347305746 	0.00114584575083 	0
0.986568820256 	0.00333050801276 	0
1.00528505302 	0.00281786478615 	0
1.01611049384 	0.00129510676637 	0
1.02140781129 	0.000357617760133 	0
1.02349045754 	-0.000205003840715 	0
1.02403006237 	-0.000341063129101 	0
1.0239021724 	-0.00031548720696 	0
1.02828543839 	0.00245719781439 	0
1.03116810892 	0.00410556776313 	0
1.03586498465 	0.00680190565937 	0
1.04212080489 	0.0105181583568 	0
1.05214155026 	0.0166710099083 	0
1.06586304361 	0.026111078178 	0
1.08470520462 	0.0415117223773 	0
1.11394706834 	0.0687628990358 	0
1.13539279175 	0.107984530663 	0
1.10655989646 	0.136854112263 	0
1.02174027365 	0.136964502977 	0
0.916655920201 	0.123452277847 	0
0.833069131356 	0.112425946529 	0
0.799000467179 	0.101478450564 	0
0.809182323756 	0.0910096538745 	0
0.85396624574 	0.0855274169734 	0
0.915640534744 	0.0802585217033 	0
0.96510207871 	0.0653802248645 	0
0.996134625928 	0.0436107660597 	0
1.01354293906 	0.0257573686656 	0
1.02157054121 	0.0143912130059 	0
1.02459626401 	0.00779017728888 	0
1.02520800606 	0.00398608798027 	0
1.02491973767 	0.00193167010753 	0
1.02432401941 	0.000888266162347 	0
1.02658988726 	0.00299022388236 	0
1.02873385348 	0.00506793969821 	0
1.03211849286 	0.00841497337847 	0
1.0363313532 	0.0134212904957 	0
1.04277810458 	0.021605262196 	0
1.05108679949 	0.0346750455003 	0
1.06025209535 	0.0549187136299 	0
1.073507034 	0.0872584556853 	0
1.08646957719 	0.135303005826 	0
1.06609709763 	0.187682499887 	0
0.999459029481 	0.227189805577 	0
0.912586125437 	0.246633298082 	0
0.844639529891 	0.244279481219 	0
0.820335930515 	0.225539317619 	0
0.830270508846 	0.199711203184 	0
0.873195776037 	0.173431290146 	0
0.939500993863 	0.144862678959 	0
0.995940588791 	0.106691495279 	0
1.02589376052 	0.0665775904613 	0
1.03449205881 	0.0382475921384 	0
1.03396772933 	0.0217178217329 	0
1.03166833356 	0.0121964534332 	0
1.02915449029 	0.00662070993392 	0
1.0270623919 	0.00342068450102 	0
1.02545032814 	0.00169736268865 	0
1.02471188929 	0.00265764261864 	0
1.02592315856 	0.00461799010297 	0
1.02756804114 	0.00788056121672 	0
1.02906460539 	0.0130192012332 	0
1.03083338239 	0.0216910989945 	0
1.03241873622 	0.0360058368479 	0
1.03192729665 	0.0585723438296 	0
1.03141416104 	0.0910194196391 	0
1.03168783911 	0.137521942436 	0
1.00788498928 	0.196295669267 	0
0.955247079874 	0.251151811093 	0
0.895292175941 	0.284558397536 	0
0.853066069509 	0.28770433819 	0
0.844536780712 	0.271523834343 	0
0.860713228457 	0.244215443548 	0
0.908617829726 	0.206998967764 	0
0.982409146725 	0.161049224769 	0
1.04328907386 	0.105982138696 	0
1.06516661872 	0.0609597076704 	0
1.05894156849 	0.0351747252023 	0
1.0480377736 	0.020298387569 	0
1.03982138172 	0.0118393823916 	0
1.03392959672 	0.00668588803124 	0
1.02979437249 	0.00365169119201 	0
1.02697802038 	0.00190354849413 	0
1.02310130375 	0.00159016412299 	0
1.02343511455 	0.00285203612919 	0
1.02346097687 	0.00509064590932 	0
1.02229907351 	0.00868415216976 	0
1.01936034241 	0.0150981862371 	0
1.01381088294 	0.0261965889874 	0
1.00468604872 	0.0451090122458 	0
0.993731197806 	0.0711965700837 	0
0.980084847824 	0.109611322512 	0
0.946810708488 	0.162448036242 	0
0.905182737856 	0.217865123672 	0
0.873037206075 	0.259897870935 	0
0.855671713012 	0.271534897895 	0
0.863426179818 	0.260195195133 	0
0.893749980459 	0.230273131084 	0
0.957135503084 	0.178965034994 	0
1.04198002102 	0.117511908385 	0
1.09533375793 	0.0630327721398 	0
1.09689356751 	0.0331119012782 	0
1.07610309709 	0.0199743297105 	0
1.05801769526 	0.0117319936145 	0
1.04576308865 	0.00718095154314 	0
1.03761574216 	0.00416067480758 	0
1.0320356229 	0.00240608260926 	0
1.02837616395 	0.00130725228348 	0
1.02239005794 	0.000194687645431 	0
1.02233258533 	0.00029539868301 	0
1.02158291609 	0.000614671702278 	0
1.01900920758 	0.00102644455535 	0
1.01320603449 	0.00213055620387 	0
1.00239894878 	0.00471568268184 	0
0.986662208371 	0.0117391499158 	0
0.967281533466 	0.0239231704347 	0
0.940387922969 	0.0469476730618 	0
0.897664939637 	0.0816204818945 	0
0.859284910226 	0.117833565246 	0
0.844272783011 	0.15105483086 	0
0.852094899055 	0.167288597102 	0
0.886159858839 	0.161967972238 	0
0.943269479303 	0.129733182273 	0
1.02166758448 	0.0744252304413 	0
1.09884618603 	0.0256117026975 	0
1.1273591057 	0.00163948740608 	0