1.01405155611 	-0.00772040972864 	-9.20561011784e-22
1.01542465495 	-0.0120540072408 	-7.16472257873e-22
1.01710118211 	-0.0169314070305 	2.95154591901e-22
1.01913659627 	-0.022700292083 	-2.65074303274e-23
1.02117107741 	-0.0295639577135 	-2.90521265791e-22
1.02270374609 	-0.0379029491351 	-1.91147135744e-22
1.02272528177 	-0.0477071859057 	-2.12860674353e-22
1.01933355285 	-0.0579966403549 	-1.19356238367e-21
1.01050445898 	-0.0704142148724 	1.78269191316e-20
0.991485492142 	-0.0778310976121 	1.47024064758e-21
0.962990585346 	-0.0742656614376 	7.41944114279e-23
0.932235413584 	-0.0506871425634 	1.95058333205e-21
0.916367922539 	-0.00759652401103 	-5.44522812301e-24
0.927654814542 	0.0368735881492 	2.07533843153e-22
0.955277079642 	0.0634948933222 	-1.64251591652e-21
0.982558728548 	0.0708202122669 	1.98341071841e-21
1.00199651975 	0.0666656546121 	2.14887712292e-20
1.01230856776 	0.0563682067164 	-1.76087550033e-21
1.01747673148 	0.0478841796553 	-1.88104577205e-21
1.0189461317 	0.0387844464114 	4.00632337804e-22
1.01863859841 	0.0306457103941 	1.02972640851e-21
1.01758451913 	0.0237569296155 	-4.21056177567e-23
1.01627775887 	0.0178107660931 	-5.32606669439e-22
1.01507530017 	0.0127366419612 	1.2882607554e-21
1.01403984898 	0.00812174591596 	1.29733747078e-21
1.01831065726 	-0.00806485559177 	2.78355350843e-22
1.02015444042 	-0.0125713554667 	5.78319143056e-22
1.02263601638 	-0.0178405437932 	2.54289002968e-22
1.02570936223 	-0.0240641463919 	-8.3950097333e-23
1.02920388995 	-0.0316936538803 	4.53409187661e-22
1.03261398942 	-0.0414264458827 	-1.80806720051e-22
1.03484941516 	-0.0538086770641 	2.88472628151e-22
1.03391631493 	-0.0699617927769 	1.27573448314e-22
1.02565452259 	-0.0903575699917 	-4.86103788624e-22
1.0025546788 	-0.111104880415 	-2.16837981694e-21
0.955189946112 	-0.122669814981 	-3.35916542308e-21
0.88609547136 	-0.0953577778918 	9.81719087732e-21
0.844760748989 	-0.00939200114063 	1.67973424282e-22
0.878190115427 	0.0788819036505 	1.00429584702e-20
0.942388777149 	0.112026857265 	-9.14990109256e-21
0.98917502648 	0.106660498645 	-2.55618931201e-21
1.01400826118 	0.0901736965934 	-6.0338828473e-22
1.02527761354 	0.0724460429945 	-4.05584057513e-22
1.02875683348 	0.0571798151191 	-1.0129307061e-21
1.02868484179 	0.044802944354 	4.93353338767e-22
1.02691898036 	0.0346374815282 	-1.08287458093e-21
1.02452823671 	0.026381687123 	1.95302033599e-22
1.02219988049 	0.0195490420427 	-9.48608774248e-22
1.02018168609 	0.0137425297396 	-1.19588809565e-21
1.01861991381 	0.0087807450881 	-7.1069232114e-23
1.02259359779 	-0.00809092057185 	6.0421162398e-24
1.02502580991 	-0.012437737216 	1.43767471997e-22
1.02837545782 	-0.0177649947997 	-9.06751913668e-23
1.03267359814 	-0.0240582718866 	6.31204718542e-25
1.03801460686 	-0.0318917351134 	7.83018944663e-23
1.04415753261 	-0.0422562633185 	-3.65614111352e-23
1.05039947233 	-0.0564585993476 	2.78374108241e-23
1.05508611037 	-0.0768273072562 	-1.37719159284e-22
1.05409573334 	-0.106544189615 	4.43054081348e-23
1.03713080434 	-0.150580967039 	5.87379145823e-22
0.976303983866 	-0.205807427374 	1.14903406595e-20
0.817454357338 	-0.219080361162 	-1.99483689216e-21
0.667430222804 	-0.0138290002734 	-2.66850894598e-21
0.802935731961 	0.196036001861 	-3.9153809206e-21
0.954088486373 	0.195596961281 	1.37724966474e-20
1.01712896663 	0.1509545718 	-9.32911044822e-22
1.03906748738 	0.11249911433 	-7.35518611355e-23
1.04512338581 	0.0846426450425 	1.71369188975e-21
1.04451110463 	0.0640137848178 	6.58982831951e-22
1.04105995376 	0.0486512125215 	-2.56449550026e-22
1.03668771554 	0.0368231894875 	-2.62422150004e-22
1.032395701 	0.0276294119972 	3.79860634105e-24
1.02871075069 	0.0202548278147 	6.26207108791e-22
1.02570253064 	0.0140495451036 	-6.61092631335e-22
1.02343484385 	0.00898390330704 	-6.69703395113e-22
1.02680006997 	-0.00766363658923 	4.88547606439e-24
1.02977055316 	-0.0117702002766 	3.10740897512e-23
1.03391852696 	-0.0166879894905 	2.07694632765e-23
1.03950258414 	-0.0225246282944 	8.28553104057e-23
1.04674638051 	-0.0297541481113 	1.04909410889e-22
1.05600433517 	-0.039547711241 	6.1650793751e-23
1.06746013664 	-0.0534577353257 	-4.68906549434e-22
1.08103210172 	-0.0746098302573 	-4.6126715209e-22
1.09577060687 	-0.109255198603 	8.07854108282e-22
1.10709772239 	-0.171688696348 	-1.78861667897e-21
1.09557051766 	-0.299762888487 	1.56810168326e-21
0.884871449283 	-0.60596458654 	5.23976823364e-22
0.850459874931 	0.561774655344 	1.61593535852e-21
1.05470907734 	0.293151875164 	-2.65949289625e-22
1.07776754767 	0.18160680053 	-1.5216376109e-22
1.07782450263 	0.124473950079 	-3.3441369312e-23
1.07156564715 	0.0896221793412 	3.19343505314e-22
1.06339310461 	0.0658537976135 	-1.22094183013e-22
1.0550322259 	0.0489389634773 	8.80915399696e-23
1.04734494536 	0.0364195225146 	1.4053507658e-22
1.0407454129 	0.027061053167 	8.60249031881e-23
1.03541282583 	0.0196733744168 	-1.0410586994e-22
1.03130962072 	0.013615580389 	2.60078882398e-23
1.02829925104 	0.00864898104664 	-1.55719875115e-23
1.03072690313 	-0.00675459506556 	1.996024477e-23
1.03410484211 	-0.0105872798917 	-5.80076926177e-23
1.03888230718 	-0.014744753555 	-6.09607514455e-23
1.0455427493 	-0.0196224684826 	1.66627277843e-24
1.05438023729 	-0.0255197229989 	-1.03697874349e-22
1.06639458709 	-0.0331861986109 	-7.35912552346e-24
1.08273942318 	-0.0438554758748 	-8.67697534531e-24
1.10540490126 	-0.060161207553 	4.30436434393e-23
1.13835086501 	-0.0878361552575 	-6.87451986885e-22
1.18962549395 	-0.139119259718 	-3.10450683194e-22
1.28863312758 	-0.239231346975 	2.60010384231e-22
0.0382908806123 	0.00137741157686 	-1.64487928313e-21
1.22299794998 	0.255698395118 	-1.86329135804e-22
1.15222696721 	0.167930883597 	2.3625111788e-22
1.12086455275 	0.116895520512 	5.77112415226e-22
1.09983913676 	0.0837797906473 	-1.57555225453e-22
1.08309981247 	0.0609603590972 	-1.64746690291e-24
1.06922530516 	0.0448202268291 	1.45648902989e-24
1.05785223424 	0.0330916671452 	1.76227209799e-23
1.04884321889 	0.0244179798184 	-1.23967957521e-26
1.04180190328 	0.0176838252831 	-3.0476489359e-23
1.03661119975 	0.0123232895631 	-3.81806506225e-23
1.03290545944 	0.00766119668713 	3.91454454261e-23
1.03399364663 	-0.00593283202505 	-4.6613142971e-24
1.03767380154 	-0.0088710778426 	8.0852464256e-23
1.04293221862 	-0.0122299014604 	3.76734048603e-23
1.05019792385 	-0.0158008527531 	1.60931642126e-23
1.05985383356 	-0.0197961158268 	1.82916425671e-22
1.07333500436 	-0.024206670813 	2.73759210705e-22
1.09221081482 	-0.0292723633146 	-1.59382754261e-21
1.12010118377 	-0.0357326910348 	4.87182967618e-22
1.16353956779 	-0.0453559143013 	2.08378660463e-21
1.23586361508 	-0.0618256230329 	-1.27592556619e-20
1.34574368662 	-0.0853018250642 	3.48305833245e-20
0.137478467248 	-0.050801402295 	1.8110563701e-21
-1.60854456989e-05 	-0.0166815746348 	-4.38633097383e-22
0.12187835863 	-0.00640986094944 	7.46962052457e-23
1.25673474835 	0.134421515699 	-2.53939376176e-20
1.1978672017 	0.121480104967 	7.74004196083e-21
1.15502557988 	0.0923300181949 	7.24355004325e-22
1.12439989737 	0.067651581331 	1.26483318755e-22
1.10047553766 	0.0492644505086 	9.45941278846e-22
1.0817591754 	0.0361360750484 	-1.58302232989e-22
1.06699788131 	0.0266506022039 	-1.03036847527e-22
1.05580935969 	0.0196986361486 	-5.14744840221e-24
1.04729540364 	0.0143562047148 	3.08445734696e-23
1.04106433949 	0.00996415334356 	2.62929004456e-23
1.03672202145 	0.00642170160398 	1.74128445001e-23
1.03674870899 	-0.0047901996393 	2.68849122802e-23
1.04045309191 	-0.00702726751158 	-4.86217028873e-22
1.04591452739 	-0.00951523031771 	5.63693475053e-22
1.05328604026 	-0.0117731283998 	-4.57870447818e-24
1.06287660714 	-0.0138067493517 	-4.37921301871e-22
1.0758410428 	-0.0148970754618 	-4.47403869833e-22
1.09375974702 	-0.0139889267896 	1.26167596249e-21
1.12002493228 	-0.00889989390458 	4.35663312465e-21
1.16113746529 	0.00317149514618 	1.13647393948e-21
1.23360692888 	0.0259892532368 	4.34175804029e-21
1.3301437822 	0.0641489577747 	4.04170233396e-21
0.465692475887 	-0.044754131447 	-5.79698645748e-21
-0.166485669679 	-0.13890727236 	-3.45382625758e-21
0.102875926798 	-0.0565119809387 	-4.42559960177e-21
1.19090934587 	0.0662702156138 	-1.66534975186e-21
1.21714713223 	0.0806578657789 	-2.48033755828e-21
1.1775944078 	0.0609815516306 	-8.64890996755e-23
1.14217873199 	0.0443250259514 	-3.54009394045e-21
1.113338837 	0.0321667370172 	-1.00827316863e-21
1.09088534802 	0.0237936414897 	2.44662913726e-22
1.07375667091 	0.0177869839609 	2.82586829785e-22
1.0609023937 	0.0133587997652 	2.11537212484e-24
1.05136302203 	0.00996158305768 	-2.10673732295e-22
1.04440562681 	0.00692822442966 	1.5035825264e-22
1.03974968475 	0.00459795846251 	1.02381064911e-22
1.03892455189 	-0.00354160698531 	-3.59623946474e-22
1.04257364996 	-0.00522741867384 	-9.53082565463e-22
1.04789227681 	-0.00691861057276 	-6.52250735926e-22
1.05495211426 	-0.00818366021379 	9.38347443629e-23
1.06360439187 	-0.00879096163749 	-8.19140327817e-22
1.07471023868 	-0.00763460713017 	5.43487882935e-22
1.08827674183 	-0.00260058828258 	-1.35723447315e-21
1.1060330822 	0.0106289086385 	-8.81479416119e-23
1.13467369439 	0.0413564417826 	-2.89761483611e-21
1.17085233677 	0.099396288922 	-3.62260318612e-21
1.23157683636 	0.216571646577 	8.17037714368e-21
0.649923500267 	0.29546232499 	1.52594319863e-20
-0.158286159318 	0.238636491201 	5.94287801062e-22
0.139173211541 	0.130336954998 	5.66195427202e-21
1.13351611063 	0.0578104842846 	-1.08820415988e-21
1.24219500085 	0.0452813721052 	-1.89910684581e-21
1.19486466845 	0.0249826380352 	-1.56150606371e-21
1.15207525684 	0.0153484670634 	2.93127035733e-22
1.12006588285 	0.0112687718893 	1.5191756853e-21
1.09571491879 	0.0088059262678 	-5.45025874539e-22
1.07701261938 	0.00738164375582 	7.49215268393e-22
1.06353258683 	0.00607204525083 	-7.37182659601e-23
1.05360724727 	0.00495557070039 	3.11989342939e-22
1.04646919892 	0.00362031425945 	4.18787852319e-22
1.04171327073 	0.00261369991341 	3.66396636849e-23
1.04039574011 	-0.00236323849488 	1.01519991833e-21
1.04407494516 	-0.00349372851085 	8.50417330801e-22
1.04908567914 	-0.0046068510252 	-3.4339291956e-22
1.05571551574 	-0.00531417227922 	-1.38737931117e-22
1.06316752365 	-0.00537149190108 	4.47943396988e-22
1.07169286845 	-0.00370538771873 	1.64375820052e-22
1.07984382776 	0.0017021267829 	-2.12660682103e-22
1.08402558015 	0.0146653864401 	6.21494268207e-22
1.08735938127 	0.0451452986424 	2.04672862159e-20
1.0761087351 	0.111850319924 	1.77141868165e-21
1.04918269854 	0.257000599941 	4.89150383505e-22
0.569119932112 	0.434811904308 	2.94322128001e-21
-0.0409711596564 	0.511803036006 	-2.80174473136e-22
0.376107057407 	0.270555623795 	1.29235523588e-21
1.17795492383 	0.019082627554 	-1.57164330204e-21
1.27290311609 	-0.0120219892496 	2.27964756524e-21
1.20023473321 	-0.0209910956286 	2.71648593595e-20
1.15233957106 	-0.0159494230739 	5.15915606443e-22
1.12013577809 	-0.0126764867276 	2.77268975476e-21
1.09454382153 	-0.00677473588594 	-2.7858251541e-22
1.07645515157 	-0.0034267468568 	-5.88488222772e-22
1.06340742502 	-0.00132573539466 	9.967640398e-23
1.05383240119 	-7.08883330548e-05 	2.35951614286e-22
1.04710168362 	0.000462612903446 	-4.04920302655e-22
1.04240717562 	0.000631175155035 	-2.9149705947e-22
1.04137063752 	-0.00119566744975 	-1.24031804122e-21
1.04501985109 	-0.00179238477482 	-4.90371489382e-22
1.04980244339 	-0.0024985380865 	-8.60676110136e-23
1.05614989294 	-0.00303572384103 	-3.30633753751e-22
1.06309050879 	-0.00338336812128 	2.50240652839e-22
1.06996279721 	-0.00236915194007 	-9.43377722398e-22
1.07264961216 	-0.00166318276299 	-7.22390062665e-22
1.07007247716 	0.00399306979204 	-6.93586060327e-22
1.05084141532 	0.0185457394314 	1.39194634787e-21
1.0001792778 	0.0502447611742 	-8.90782074714e-23
0.874405988249 	0.150279821009 	-4.96798877932e-22
0.329460769499 	0.372584916271 	-1.80030215016e-22
0.134078213736 	0.338803052565 	-1.12321412491e-21
0.724860366605 	0.0268422844014 	5.51476590517e-21
1.2443616237 	-0.133954077317 	-3.88649013011e-21
1.27729619646 	-0.110393671323 	1.76250809948e-21
1.1839205201 	-0.0774890856087 	4.08928408104e-21
1.14055449749 	-0.0511827114821 	-9.92472515e-22
1.10813192969 	-0.0321780021815 	1.11450272894e-21
1.08727042857 	-0.0224168066517 	8.66122943103e-22
1.07246887826 	-0.0132301632689 	-1.40671955391e-21
1.06060804924 	-0.00780296498836 	2.33657337096e-22
1.0521096521 	-0.00442780662775 	6.5182096162e-23
1.0462611686 	-0.00235725588075 	4.55180873492e-22
1.0420801599 	-0.00113936546409 	1.82261327041e-22
1.04164164728 	-0.000109604860994 	1.47029804332e-21
1.04545944417 	4.08469351903e-06 	-2.80980966357e-21
1.05023928171 	-0.000369809673741 	1.56118643035e-21
1.05638747602 	-9.33691915943e-05 	6.41237642477e-24
1.06335920387 	-0.00186475681229 	1.79169502023e-21
1.07024919008 	-0.00393302938091 	-4.34256451404e-22
1.07485156337 	-0.00693485966263 	-9.84534430512e-22
1.07173526568 	-0.014797519933 	4.63991811347e-23
1.04843145495 	-0.0268323526823 	5.92202357099e-23
0.982122551308 	-0.0484866872315 	-4.42723826666e-22
0.733296445569 	0.0107617952722 	3.55191355794e-21
0.285630254914 	0.0674387227898 	3.5105322241e-23
0.405343194816 	-0.1327300234 	-4.6176261438e-22
0.913369793834 	-0.326815480832 	1.47892029848e-22
1.21014765253 	-0.304283237071 	-1.0458638953e-20
1.19950137433 	-0.197334876235 	1.22261614168e-21
1.13844695428 	-0.120668214159 	1.32391208245e-21
1.11193216514 	-0.0771362204552 	1.3263615758e-22
1.08959702585 	-0.0483326906336 	-2.39860386653e-21
1.0746870319 	-0.0299522816534 	-6.56694614042e-22
1.06404154058 	-0.0195398840366 	1.70878928064e-21
1.05550122474 	-0.0125193429664 	-1.03167277284e-24
1.04892262508 	-0.00734050539437 	-1.24103664667e-21
1.04426133063 	-0.00446701410364 	1.89735739901e-21
1.04082080248 	-0.00236975209615 	-4.16082435309e-23
1.04142171024 	0.00114053465982 	-1.06994914405e-21
1.04543502654 	0.00208910478637 	2.17480700552e-23
1.04971067244 	0.00284260353262 	2.92961642963e-21
1.05652958948 	0.0017229302123 	-1.27845714316e-21
1.0650434452 	0.000525506949971 	1.72964981606e-21
1.07467804109 	-0.0019178688353 	-1.70861096568e-21
1.08468260709 	-0.0104178855796 	1.83565495053e-22
1.09158548844 	-0.0257266428862 	4.19001494306e-24
1.09286558385 	-0.0672533785125 	-8.06241311277e-22
1.01700689217 	-0.137026385795 	1.12428703605e-21
0.672161891467 	-0.199370518157 	-1.09467768589e-21
0.432005980497 	-0.310829365973 	-3.67719704471e-22
0.572040194364 	-0.425018732954 	-2.88646842971e-22
0.90731449617 	-0.454050644444 	-2.26972126232e-21
1.08016455545 	-0.354652087165 	1.02799964907e-22
1.08644552672 	-0.221120589497 	-2.66414097647e-21
1.07558003358 	-0.136830917918 	2.06820981235e-21
1.07231655062 	-0.0857863353952 	2.40465042817e-23
1.06535432242 	-0.0539892514134 	3.88453052761e-22
1.05985902418 	-0.0337980452655 	-2.39779219479e-21
1.05366425743 	-0.0212665986235 	1.8854434942e-21
1.04887930236 	-0.0134355864935 	-3.83622390999e-22
1.0447645709 	-0.00862239311091 	-2.42089954562e-21
1.04165992734 	-0.00576988100339 	-4.18801713822e-23
1.03901688249 	-0.00307300327915 	4.13831239971e-22
1.04022838321 	0.00260392005514 	8.76834673621e-22
1.04451766774 	0.00354731643429 	-4.62158355764e-22
1.0489207332 	0.00421798127483 	-2.73587519111e-22
1.05659963211 	0.00583182155426 	3.00924559822e-22
1.06588948392 	0.00567482432567 	2.41487782766e-22
1.08046537378 	0.00587388710835 	6.188452667e-22
1.09648493406 	-0.00201076928214 	9.63966329151e-23
1.12271067922 	-0.0135361018792 	-2.8743484942e-23
1.16149604726 	-0.0579674247723 	7.30241957911e-23
1.12733683568 	-0.119255141868 	1.07874043729e-22
0.799184364446 	-0.301780366874 	-5.2115868491e-22
0.534477133441 	-0.478016797354 	-5.54756065362e-22
0.595237631771 	-0.505099517174 	-3.99967810679e-22
0.832568824337 	-0.433916052674 	6.88077915681e-22
0.938459614872 	-0.316487852522 	7.64075601167e-22
0.984160743112 	-0.188282633265 	-7.17554197882e-24
1.01273405455 	-0.119083260319 	-6.88040379731e-23
1.03465106752 	-0.0751279472051 	1.52875096879e-23
1.0412503814 	-0.0463850129255 	1.06719368325e-22
1.04517243538 	-0.0300027273811 	5.9871583966e-22
1.04499005449 	-0.0191788238884 	1.96490738481e-22
1.04281899927 	-0.0122261824271 	9.80660514682e-23
1.04067333168 	-0.00795184624923 	-2.84320157445e-22
1.03906626443 	-0.00548034780068 	-6.7891553615e-22
1.03713627299 	-0.00307643241242 	-3.95139546418e-22
1.03872413202 	0.00369901644991 	-2.33412916231e-21
1.0418917723 	0.0051983037365 	7.63041774453e-22
1.04726352581 	0.00750417920261 	-2.52343495682e-24
1.05485732087 	0.00964117029038 	5.42310326506e-23
1.06460243011 	0.0134206956037 	-3.93755383214e-22
1.08119515313 	0.0176621058894 	-2.0677534026e-22
1.10094873016 	0.0169962346563 	8.55260744797e-22
1.13784347173 	0.0280164646561 	3.14725724794e-23
1.22078034732 	0.0129301722609 	4.02441805885e-23
1.21743873954 	-0.00587606865194 	-2.49362936747e-22
1.01485697194 	-0.100760803276 	-2.2145297626e-21
0.696001794246 	-0.305730300113 	1.11354610538e-23
0.584167816293 	-0.399085859982 	-2.93745545893e-22
0.685667995217 	-0.348365137742 	-9.92770931655e-23
0.821079978149 	-0.203093102842 	8.69540388759e-23
0.895363250264 	-0.117288503661 	-2.22084091529e-23
0.955837754077 	-0.0665483899622 	7.34247356593e-24
1.00528655325 	-0.0433022563189 	1.72219495227e-23
1.02529287439 	-0.0271935079202 	1.3318639298e-22
1.03444929058 	-0.0189627673679 	1.85700638025e-23
1.0388188022 	-0.0133762967362 	-1.24337518139e-22
1.03913608711 	-0.00918208373616 	3.26156637256e-23
1.03811602565 	-0.00636312338609 	2.08966544938e-23
1.03643338281 	-0.00430393549907 	4.37640818978e-22
1.03515619375 	-0.00311298044811 	1.01401518121e-22
1.03651101572 	0.00378591882521 	-4.74527093003e-22
1.03955254255 	0.00657259058732 	-5.09000175385e-22
1.04439590487 	0.00990759823394 	1.47866958356e-22
1.05018079427 	0.0139253057306 	-1.40988665278e-23
1.0593753599 	0.0203904026357 	1.47239538028e-22
1.07320944163 	0.0277060574496 	4.13959205835e-22
1.09078865948 	0.0402694219626 	3.58604255663e-23
1.12725284831 	0.0592804156119 	-7.15755984354e-22
1.18884506542 	0.0948377099907 	9.08395862761e-22
1.2081437631 	0.14516574403 	5.7078987829e-22
1.10019878661 	0.156363522688 	-1.02878878252e-21
0.874522482156 	0.0749369271356 	0
0.679484736083 	-0.0401643183824 	8.09944828119e-37
0.639729777269 	-0.0988970264227 	1.28403196093e-25
0.719278024125 	-0.0713188111129 	3.4483654261e-22
0.84009524332 	-0.0175752112712 	-2.9135272763e-22
0.935668807066 	-0.00444401188947 	-2.95328601152e-22
0.989047967538 	-0.0050551758015 	4.1201540743e-22
1.01734727431 	-0.00380269896664 	-2.29990422411e-23
1.02986743475 	-0.00438893055295 	-1.33886285996e-22
1.03505770273 	-0.00483428980987 	4.77714521681e-23
1.03677325853 	-0.00433405054497 	4.68694044895e-23
1.03656200135 	-0.00361395648607 	8.50499349794e-23
1.03532534751 	-0.00280231788266 	-2.1888768868e-22
1.03404007508 	-0.00178171807054 	-2.0926211342e-22
1.03424575556 	0.00459386720133 	0
1.03663916823 	0.00754368744243 	0
1.04030750225 	0.0114647792884 	0
1.04463228945 	0.0167581218597 	0
1.05121874642 	0.0243576853735 	0
1.06056770383 	0.0357359183616 	0
1.07161903055 	0.0533546037731 	0
1.09203373733 	0.0798981696821 	0
1.1281801784 	0.1297667886 	0
1.14540222359 	0.207396393097 	0
1.08372936928 	0.271882274052 	0
0.926039686689 	0.273189209435 	0
0.754557325703 	0.225910580661 	0
0.682507444759 	0.167672971555 	0
0.719337215558 	0.134483342835 	0
0.834119055241 	0.118154360205 	0
0.948679884788 	0.0838479338056 	0
1.0034263831 	0.045854168042 	0
1.02675010867 	0.021864972592 	0
1.03599164119 	0.00995765818164 	0
1.03839804009 	0.0030079961078 	0
1.03837745593 	-0.00033371069634 	0
1.03711519377 	-0.00160064099821 	0
1.03527211285 	-0.00181128698388 	0
1.03356231582 	-0.00132986804857 	0
1.03170605236 	0.0046337490494 	0
1.03325090044 	0.00748726354843 	0
1.0355154901 	0.0114284469784 	0
1.03813709169 	0.0171093547182 	0
1.04141003694 	0.0250119874534 	0
1.04529190714 	0.0377627378884 	0
1.04945036501 	0.0572055292287 	0
1.05394233337 	0.0854646189269 	0
1.0597501566 	0.135618949003 	0
1.05793146025 	0.214454142365 	0
1.0226330416 	0.303327440269 	0
0.912866626649 	0.357433593247 	0
0.780841481779 	0.359189383922 	0
0.728364433533 	0.326422295018 	0
0.766966643167 	0.281638049766 	0
0.888795480183 	0.221404702831 	0
1.00922679478 	0.146080394191 	0
1.05193966739 	0.0792758371156 	0
1.05506794654 	0.0380150105951 	0
1.05013620975 	0.0186313135609 	0
1.04565404932 	0.00723410942095 	0
1.04179337209 	0.00188201267236 	0
1.03823492237 	-0.000482072041789 	0
1.03532370807 	-0.00122773084551 	0
1.03307796822 	-0.00108474591745 	0
1.02927081077 	0.00400546643878 	0
1.03010261822 	0.00641262377128 	0
1.03103238147 	0.00964602227692 	0
1.03176245408 	0.0144770149507 	0
1.03149052273 	0.0216063064489 	0
1.02966306763 	0.03309052289 	0
1.02554597554 	0.0515919584378 	0
1.01530964677 	0.0801462878814 	0
0.997335805787 	0.126370800785 	0
0.970119240302 	0.194232406644 	0
0.93525549309 	0.286143422273 	0
0.864221637289 	0.364037073504 	0
0.781951470439 	0.385028350028 	0
0.7603639916 	0.361820760792 	0
0.822097330812 	0.308397275883 	0
0.970456821352 	0.219030689877 	0
1.09342418521 	0.124321580007 	0
1.11127717765 	0.0613247196337 	0
1.086865873 	0.0301139293724 	0
1.06606582739 	0.0145894519381 	0
1.05394929427 	0.00512799081205 	0
1.04557522704 	0.00127232189822 	0
1.03972887991 	-0.000755027052716 	0
1.03557448649 	-0.00128621879343 	0
1.03278904838 	-0.00116670386181 	0
1.02721400167 	0.00276530626824 	0
1.02754161341 	0.00432166812079 	0
1.02738934422 	0.00623046943848 	0
1.02621544093 	0.00896538729359 	0
1.02255060688 	0.0133312652541 	0
1.01509032241 	0.0202632711859 	0
1.00164559481 	0.0328344280938 	0
0.978856451046 	0.0541366365254 	0
0.944259786025 	0.0877427974987 	0
0.894206626346 	0.137242797987 	0
0.846437641529 	0.208146934532 	0
0.80573048119 	0.28180963708 	0
0.778933145456 	0.310069457763 	0
0.80386254636 	0.279808145543 	0
0.911123998887 	0.198705164303 	0
1.07459823745 	0.096890246405 	0
1.16584156994 	0.0307074337335 	0
1.14633072428 	0.00815957463143 	0
1.10296088514 	0.00343418487358 	0
1.07548560499 	5.41943974529e-05 	0
1.05898425752 	-0.00243850530818 	0
1.04774004521 	-0.00247606821532 	0
1.04076044519 	-0.00271302802782 	0
1.03568813023 	-0.00216585008397 	0
1.03250666208 	-0.00162684269068 	0
1.02608090494 	0.00115675263489 	0
1.02627306593 	0.00157962687592 	0
1.02580010194 	0.00174265609252 	0
1.02392651525 	0.00153033617509 	0
1.01894605312 	0.000947224776548 	0
1.00878986343 	-0.000426275324031 	0
0.989911903578 	-0.00139544437768 	0
0.959595910401 	-0.000668560402133 	0
0.913199673662 	0.00726778722065 	0
0.847446481637 	0.0269929620188 	0
0.791800358279 	0.0582463077501 	0
0.768862333602 	0.0895963636383 	0
0.791668212144 	0.0973438758569 	0
0.876955328891 	0.0620089205356 	0
1.01360437313 	-0.0112511798805 	0
1.14495890526 	-0.0659019178736 	0
1.18255952258 	-0.0645411013878 	0
1.14038036147 	-0.0417352121714 	0
1.09766028659 	-0.0249590154326 	0
1.07367409126 	-0.0165497675715 	0
1.05770152904 	-0.0117768920029 	0
1.04656101789 	-0.007985030246 	0
1.03990167586 	-0.00582520195576 	0
1.03477354684 	-0.00380024881034 	0
1.0316203361 	-0.00245207806711 	0
1.02607879932 	-0.000204060111276 	0
1.02675444961 	-0.000813952343792 	0
1.02715942949 	-0.00237055034323 	0
1.02680265452 	-0.00553804192788 	0
1.02420304387 	-0.0114457579421 	0
1.01744841875 	-0.0220889895609 	0
1.00168101748 	-0.0398294132623 	0
0.970438773877 	-0.0659378989327 	0
0.915161094692 	-0.0893882823242 	0
0.840422412921 	-0.102662126949 	0
0.785340985579 	-0.109866811397 	0
0.772375614833 	-0.123921871646 	0
0.816288386033 	-0.14318488716 	0
0.924430629118 	-0.164472903687 	0
1.04675489908 	-0.181308774355 	0
1.13058050953 	-0.163512270264 	0
1.14260421409 	-0.114399872514 	0
1.10797306531 	-0.0702177327895 	0
1.07916812688 	-0.0439061854382 	0
1.0629585927 	-0.0285930691643 	0
1.05082143138 	-0.0189041328364 	0
1.04200764863 	-0.0125240447686 	0
1.03667445267 	-0.00847398878716 	0
1.03242777893 	-0.00535389211057 	0
1.02984956873 	-0.00327700247714 	0
1.02685725286 	-0.000898136670395 	0
1.02856241555 	-0.00206440895749 	0
1.0307719569 	-0.0046686000217 	0
1.0335525268 	-0.00956865749954 	0
1.03626397334 	-0.0182564439719 	0
1.03845335939 	-0.0339734310554 	0
1.0349776546 	-0.0612100502918 	0
1.00995688473 	-0.106006277459 	0
0.949279785994 	-0.155864967836 	0
0.866920632339 	-0.195023011791 	0
0.81093764975 	-0.226190727744 	0
0.799047824552 	-0.256405196393 	0
0.832786275646 	-0.279745267783 	0
0.919499145519 	-0.283405595118 	0
1.01220070708 	-0.255688568552 	0
1.07070724654 	-0.198642090518 	0
1.08344090084 	-0.134047721087 	0
1.06791304405 	-0.0844333817182 	0
1.05570283956 	-0.0541692384652 	0
1.04801489353 	-0.0347974279419 	0
1.04106338119 	-0.0222247964398 	0
1.03570518585 	-0.0143908834507 	0
1.03226531811 	-0.00938269171116 	0
1.02937745636 	-0.00588868029793 	0
1.02759803789 	-0.00356905453581 	0
1.02786022833 	-0.000964483745188 	0
1.03069450265 	-0.00215848879917 	0
1.03481926805 	-0.0046448166394 	0
1.04073120363 	-0.00916560919166 	0
1.04911887283 	-0.0166399411108 	0
1.06128619352 	-0.030492299653 	0
1.07482886853 	-0.0536891567997 	0
1.06542822828 	-0.0978235934983 	0
1.00445106533 	-0.162855345249 	0
0.910655768387 	-0.22329660443 	0
0.845675314573 	-0.26886381238 	0
0.82649076486 	-0.301320768774 	0
0.84176092509 	-0.320353553899 	0
0.894919940322 	-0.313960536043 	0
0.954194466162 	-0.266999666996 	0
1.00038847365 	-0.198662712815 	0
1.0239631884 	-0.134730509153 	0
1.02675727563 	-0.0869261415855 	0
1.02929968078 	-0.0556220206017 	0
1.03086866947 	-0.0343980501894 	0
1.030223862 	-0.0211254748435 	0
1.02907671992 	-0.0131472909664 	0
1.02792128576 	-0.00825700501975 	0
1.02651671696 	-0.00507854278849 	0
1.02549386705 	-0.00302820025295 	0
1.02862920261 	-0.000525659556165 	0
1.03220268577 	-0.00119698219852 	0
1.03763545519 	-0.00239763107922 	0
1.0454817037 	-0.00471932283066 	0
1.05758776596 	-0.00808780471309 	0
1.07591558181 	-0.0148942736675 	0
1.10230803223 	-0.024719880891 	0
1.11777277327 	-0.0471316784678 	0
1.07547241752 	-0.100031217122 	0
0.97443655602 	-0.173332276646 	0
0.887625244779 	-0.240017336575 	0
0.848588604408 	-0.279270265888 	0
0.842354714997 	-0.293217036 	0
0.861729961979 	-0.273756659733 	0
0.891649730253 	-0.219898578191 	0
0.933342839771 	-0.158780002947 	0
0.970569556125 	-0.104771848322 	0
0.989007597293 	-0.0664416934335 	0
1.00324010387 	-0.0412845212259 	0
1.01393677594 	-0.024080483417 	0
1.02008573722 	-0.0142350344079 	0
1.02320591161 	-0.00855169655223 	0
1.02434996958 	-0.00525581114889 	0
1.02432481294 	-0.0031495580586 	0
1.02396079253 	-0.00184938116983 	0
1.02882448052 	0.000434340552098 	0
1.03253054308 	0.000733025171363 	0
1.03836227537 	0.0013101345751 	0
1.04661431564 	0.00179820635668 	0
1.05961462615 	0.00309741810551 	0
1.07869564722 	0.00440004443223 	0
1.10750704549 	0.00837097955271 	0
1.14015556027 	0.0137839106648 	0
1.13033104224 	0.00226190568458 	0
1.05208266719 	-0.0428267511308 	0
0.953554860566 	-0.108064511298 	0
0.88017708038 	-0.151231991646 	0
0.838019064546 	-0.161159641863 	0
0.825837537265 	-0.141717291532 	0
0.84061648512 	-0.105666364359 	0
0.883311707194 	-0.0701593839426 	0
0.93168660222 	-0.0370513298753 	0
0.963758251838 	-0.0170629241594 	0
0.986625636781 	-0.00776822453939 	0
1.0038085087 	-0.00307255191512 	0
1.01460648671 	-0.00166776560798 	0
1.02018039847 	-0.00109052130711 	0
1.02254675803 	-0.000869493930716 	0
1.023235499 	-0.000603181909983 	0
1.0232246788 	-0.000437749587256 	0
1.02819095458 	0.00169581942449 	0
1.03152921232 	0.00295676249261 	0
1.03686074824 	0.0050639157823 	0
1.0441679941 	0.00801887151681 	0
1.05561386631 	0.0131179082247 	0
1.07156315961 	0.020911467592 	0
1.0941580521 	0.0343425027796 	0
1.12433331173 	0.0581533522049 	0
1.13282370889 	0.0849443993864 	0
1.08914260477 	0.090780056604 	0
1.00327319434 	0.0692385610051 	0
0.909240460881 	0.0489762140949 	0
0.839936045742 	0.0425222144569 	0
0.812164549459 	0.0414539652544 	0
0.822308999342 	0.0414189746176 	0
0.863274966453 	0.0444189663332 	0
0.917051615878 	0.0499015825225 	0
0.959683431653 	0.0465679085335 	0
0.988650206756 	0.0342849121941 	0
1.00758998451 	0.0216101992725 	0
1.01780069419 	0.0125638382672 	0
1.02217497235 	0.00706701076902 	0
1.02361675158 	0.00379652651659 	0
1.02377318867 	0.00197661339554 	0
1.02346826871 	0.000942500247542 	0
1.02672931628 	0.00255637611645 	0
1.02931066941 	0.00441485000952 	0
1.03337516981 	0.00752448423035 	0
1.0386982194 	0.0122596983447 	0
1.04685645105 	0.0201353396468 	0
1.05764976703 	0.0326233018774 	0
1.07056201039 	0.0520923031887 	0
1.08751378799 	0.0841956800604 	0
1.09684251656 	0.127587231805 	0
1.07002999883 	0.165646578493 	0
0.99899904804 	0.187240278349 	0
0.911707614008 	0.197694399819 	0
0.847774829395 	0.195552630591 	0
0.825575739333 	0.18051404251 	0
0.835191034843 	0.160181725756 	0
0.872648008211 	0.140713353623 	0
0.929148546249 	0.122395549714 	0
0.979294278278 	0.096860851599 	0
1.01124805314 	0.0646968686155 	0
1.02581656861 	0.0383491337893 	0
1.02936258934 	0.0222339323938 	0
1.02901845087 	0.0127287297564 	0
1.02756635956 	0.00713163642346 	0
1.02603096576 	0.00386265803301 	0
1.02473620923 	0.00198814237595 	0
1.02488362756 	0.00253257503364 	0
1.02647267418 	0.00451628514684 	0
1.02878806305 	0.0079230876295 	0
1.03138358791 	0.0133514973991 	0
1.03499377229 	0.0225370368109 	0
1.03925193499 	0.0374879476285 	0
1.04225566865 	0.0604705520262 	0
1.04572748572 	0.0941892840753 	0
1.0479369409 	0.139449863207 	0
1.02448876077 	0.191692782888 	0
0.966014068707 	0.234365782951 	0
0.898937432801 	0.258207747894 	0
0.855916251782 	0.259451107469 	0
0.847467996689 	0.244261423141 	0
0.861679560253 	0.220809358288 	0
0.900872631254 	0.190234203385 	0
0.961441428362 	0.155874829512 	0
1.01754865986 	0.112144775824 	0