1.01395690594 	-0.00774336933074 	-6.92748817993e-22
1.01523704573 	-0.0120489592477 	-5.49193567773e-22
1.01679090804 	-0.0168571009008 	2.42259221656e-22
1.01866058294 	-0.0224908723206 	-3.12569826778e-23
1.02050643017 	-0.0291388212339 	-2.26901677539e-22
1.02183915357 	-0.0371510093954 	-1.68586592729e-22
1.02165515163 	-0.0464893365537 	-1.87758162848e-22
1.0181499653 	-0.0562723557261 	-1.09981869628e-21
1.00926774789 	-0.0680221660777 	1.67046517554e-20
0.990397921097 	-0.0748482859627 	1.41988006838e-21
0.962180726949 	-0.0707893703416 	7.96526461713e-23
0.931815316389 	-0.0468985814418 	1.92203463175e-21
0.91638890133 	-0.00368333287986 	-5.28592682401e-24
0.92813561402 	0.0406749215245 	2.02170061937e-22
0.956144992889 	0.066956866815 	-1.65792503629e-21
0.98369116295 	0.0737680962377 	2.01221959972e-21
1.00325527875 	0.0690070866467 	2.20069933589e-20
1.01349792314 	0.0580348836596 	-1.80984770746e-21
1.01853434716 	0.0490505568129 	-1.94320030607e-21
1.01978866955 	0.0394986304598 	4.14121592378e-22
1.019276594 	0.0310443403087 	1.07367807727e-21
1.01802884506 	0.023947856995 	-4.61766686994e-23
1.01655532148 	0.0178755565141 	-5.54615973532e-22
1.01522999454 	0.0127363592039 	1.34895704659e-21
1.0141044957 	0.00809571835545 	1.35930408658e-21
1.01822318086 	-0.00816377171135 	1.87562412677e-22
1.01994662678 	-0.0126879853596 	4.05658480247e-22
1.02224915654 	-0.0179369392329 	1.20856056271e-22
1.02508306643 	-0.0240736814146 	-6.42110408125e-23
1.02826714669 	-0.031522931349 	3.645505865e-22
1.03132799732 	-0.0409268474876 	-1.40834193703e-22
1.03323738213 	-0.0528190113635 	2.12411237072e-22
1.03204558411 	-0.0682748594747 	1.09076277309e-22
1.02371552249 	-0.0878645685425 	-4.43824546132e-22
1.00080623762 	-0.107813294356 	-2.00938595218e-21
0.953906854356 	-0.118727200703 	-3.20985573698e-21
0.885432854583 	-0.0910171601458 	9.68952517233e-21
0.844767840746 	-0.00492047105829 	1.67286536385e-22
0.87893276833 	0.0832091195795 	1.00916471466e-20
0.94375639602 	0.11593565496 	-9.31264061767e-21
0.990988820849 	0.109894141841 	-2.64309965833e-21
1.01599454106 	0.0925912539187 	-6.27189876744e-22
1.02715181014 	0.0740444975558 	-4.22652487307e-22
1.03035328652 	0.0580987512741 	-1.06632197793e-21
1.02993733984 	0.0452475436801 	5.17429301985e-22
1.02781537996 	0.0347666577006 	-1.13016501597e-21
1.02511345871 	0.0263430643451 	2.04493739751e-22
1.02254765073 	0.0194313434909 	-1.00945816276e-21
1.02035299387 	0.0136151784688 	-1.25824856279e-21
1.01867307012 	0.00867208142892 	-6.76480250611e-23
1.02257027017 	-0.00829305239304 	4.32110068368e-24
1.02485738873 	-0.0127372050633 	3.49162166433e-23
1.02798129528 	-0.0181302587934 	1.7801395815e-23
1.03197015633 	-0.0244361260701 	1.40381500763e-24
1.03688383742 	-0.0322076834317 	4.06898912926e-23
1.04249660174 	-0.0423383397249 	-8.86510924968e-23
1.04815886271 	-0.0560591714219 	1.28643995089e-22
1.05234989364 	-0.0756270103722 	8.20852427306e-23
1.0511643102 	-0.104272026958 	7.62758356103e-23
1.03448275798 	-0.147143496118 	4.83893339156e-22
0.974493130947 	-0.201610586285 	1.06208769321e-20
0.816483749801 	-0.214463908835 	-1.97832676195e-21
0.66745977848 	-0.00896000835257 	-2.66380094636e-21
0.803997088058 	0.200626233139 	-3.94437507389e-21
0.956015660817 	0.19974766228 	1.43139135556e-20
1.01987510817 	0.154291667144 	-9.92205300713e-22
1.04205011335 	0.114646111063 	-8.23790101809e-23
1.04785771534 	0.0857125230217 	1.85915681245e-21
1.04671140504 	0.064301756291 	7.15984662948e-22
1.04266866223 	0.0484857997527 	-2.79563670158e-22
1.03776116624 	0.0364474528724 	-2.78364828106e-22
1.03304645267 	0.0272053099332 	4.16779063063e-24
1.02905552578 	0.0198543922331 	6.74058292236e-22
1.02583014964 	0.0137233148148 	-7.08432541595e-22
1.02341713445 	0.00876951846604 	-7.15879057204e-22
1.0269107607 	-0.00799751290376 	-7.93050528867e-24
1.02973000785 	-0.0122923699759 	4.33020553525e-23
1.03363973484 	-0.0174028081361 	3.53404024517e-24
1.03886015317 	-0.0234198277097 	1.14972616401e-22
1.04557201771 	-0.0307899858364 	1.45744504805e-22
1.05408463737 	-0.040562604936 	8.76950856065e-23
1.06461806653 	-0.0541336287375 	-5.54394274976e-22
1.07724016657 	-0.0744284920436 	-4.85404952282e-22
1.09137728028 	-0.107551945268 	9.26551396989e-22
1.10311432569 	-0.16805325524 	-2.02572588476e-21
1.09335172798 	-0.294936114718 	1.83794838993e-21
0.883763810866 	-0.601962451676 	8.35153281383e-22
0.85165507683 	0.565869025633 	1.73120936363e-21
1.05711808919 	0.29796676372 	-3.50794373786e-23
1.08192896396 	0.185086590675 	9.11735244746e-23
1.08228202659 	0.125959096234 	1.93237385745e-23
1.07533190758 	0.0896097334864 	2.8421629967e-22
1.06615958929 	0.0650319695807 	-1.61379155569e-22
1.05686607194 	0.047826711244 	9.94785838736e-23
1.04843949284 	0.0353188064797 	1.59752889463e-22
1.04131807939 	0.0261206694068 	9.91027091923e-23
1.03563165951 	0.0189287604479 	-1.11279338346e-22
1.03129484137 	0.0130645766415 	3.16128690427e-23
1.02814023203 	0.00829963526208 	-1.75944486448e-23
1.03104840651 	-0.00721121625383 	3.38087686406e-23
1.0343101321 	-0.0113347830351 	-7.95318399477e-23
1.03888597727 	-0.015833813986 	-8.06965090901e-23
1.04518490574 	-0.0211160478947 	1.98247942731e-24
1.05343879982 	-0.027454766273 	-1.17582294655e-22
1.06450857029 	-0.0354893018511 	-8.15510328919e-24
1.07946476322 	-0.0462095524411 	-9.17135172293e-24
1.10035518911 	-0.0618137709877 	4.55267198932e-23
1.1316157989 	-0.0873960110299 	-7.20261042603e-22
1.18274789122 	-0.134866204757 	-3.28372267042e-22
1.28573517249 	-0.231079052308 	2.7428734606e-22
0.0366489825549 	0.00141901838727 	-1.55888966992e-21
1.22636402233 	0.26396109736 	-1.73339213256e-22
1.1594550608 	0.17189465392 	2.19781269079e-22
1.1276608443 	0.116960358191 	5.46205265872e-22
1.1047881608 	0.08185958393 	-1.49433875335e-22
1.08622425403 	0.0584461053146 	-1.55751623342e-24
1.07097687836 	0.0424423977548 	1.04009224617e-24
1.05868737282 	0.0311187577074 	1.26441116697e-23
1.04911647103 	0.0229042228872 	7.35935922287e-27
1.04173211288 	0.0165895008416 	-3.91210049648e-23
1.03634458693 	0.0115742889269 	-4.75966417637e-23
1.03252540666 	0.00720163588593 	4.60555163862e-23
1.03461126451 	-0.00646500219292 	-6.99549772796e-24
1.03825577185 	-0.00976585620816 	1.06347257606e-22
1.0434047674 	-0.0136208990622 	5.1287761291e-23
1.05041970056 	-0.0178458662142 	1.76880361116e-23
1.05957782093 	-0.0226836766506 	2.01756249414e-22
1.07203483081 	-0.0280820400661 	2.89902537298e-22
1.0890589616 	-0.0340216290522 	-1.65150894564e-21
1.11397445739 	-0.0405867474056 	4.70837758128e-22
1.15330785205 	-0.0481604257774 	2.12136622559e-21
1.22197466587 	-0.0578308183421 	-1.29951904417e-20
1.33649782961 	-0.0686537023712 	3.64800934527e-20
0.162062948093 	-0.0443895430967 	1.99767493231e-21
-0.000163779413894 	-0.0146391115642 	-4.34659771291e-22
0.0988529337213 	0.00544370267871 	1.22412907115e-22
1.26768673685 	0.151295766758 	-2.42830728514e-20
1.21236674921 	0.124637080337 	7.70514368447e-21
1.16516349732 	0.08883909295 	7.45057422169e-22
1.13022149932 	0.0624633626891 	1.02247084615e-22
1.10334371405 	0.0444123194188 	9.4521483929e-22
1.08286161634 	0.0322570229352 	-1.55189702776e-22
1.06714636314 	0.0237815767193 	-9.46308639219e-23
1.05549097222 	0.0176671514749 	-4.78870838504e-24
1.04675350128 	0.0129810281822 	3.69205491107e-23
1.04042579323 	0.00908150274298 	3.80261874221e-23
1.03605254389 	0.00590506136221 	3.90300996387e-23
1.03769993716 	-0.0052972499115 	3.63401695077e-23
1.04149213383 	-0.00791054298054 	-5.85622046786e-22
1.04702425658 	-0.0110200940062 	6.61540522697e-22
1.05441033277 	-0.0141305647381 	-5.15594195651e-24
1.06378100265 	-0.0174446695197 	-4.7581523011e-22
1.07599086783 	-0.020310756014 	-4.65484236093e-22
1.09207525756 	-0.021641821818 	1.28856319309e-21
1.11427459189 	-0.0188002619742 	4.29522392059e-21
1.14775862475 	-0.00713461143304 	1.1186317855e-21
1.20713238543 	0.0223481519424 	4.14969408765e-21
1.29323601317 	0.0839161025039 	4.18693200658e-21
0.455518206379 	0.0565708396428 	-6.08472522217e-21
-0.190986742765 	0.0294364534144 	-3.32629225114e-21
0.148398256175 	0.0592983469727 	-4.20539303064e-21
1.23210965099 	0.0861503548536 	-1.56475741623e-21
1.24403122258 	0.0747451957372 	-2.75257257338e-21
1.19020254917 	0.0495521561178 	-8.88752362399e-23
1.14721135639 	0.034197267653 	-3.7182306919e-21
1.11459073065 	0.0245740000637 	-1.02481401052e-21
1.09051144987 	0.0184871739028 	2.45036731655e-22
1.07272521602 	0.0142369490408 	2.69914801667e-22
1.05969166587 	0.0110416700537 	1.85896021063e-24
1.05018845004 	0.00848486126866 	-1.65559699245e-22
1.04330307501 	0.00603299121472 	1.01759006546e-22
1.03874823664 	0.00408569507837 	5.21803605272e-23
1.04018111182 	-0.00396322241002 	-4.37731275824e-22
1.04408354646 	-0.00597024654541 	-1.1353842435e-21
1.04973673751 	-0.00823327893763 	-7.59546576464e-22
1.05721801018 	-0.0103898064247 	1.08964444479e-22
1.0662200569 	-0.0125769221155 	-8.95096162114e-22
1.07747956514 	-0.013921826728 	5.59113415137e-22
1.09004638175 	-0.0127836046304 	-1.37159978258e-21
1.10422235268 	-0.0051403582206 	-8.58372787278e-23
1.12252236048 	0.0186076111907 	-2.59894739392e-21
1.13867374717 	0.070577547974 	-3.19747763766e-21
1.15437041134 	0.197634787963 	6.56651975614e-21
0.506563927433 	0.353432216319 	1.24955807804e-20
-0.1829188532 	0.386581957327 	5.33792696705e-22
0.318229866268 	0.211334564316 	7.81521543737e-21
1.22724009439 	0.0340257597793 	-1.52786155629e-21
1.27324702477 	0.0115097521744 	-2.20648785639e-21
1.20440603592 	0.00104073222537 	-1.80370341929e-21
1.15250538253 	-0.000294557277345 	3.07333539335e-22
1.11779282176 	0.00150165863707 	1.55374510146e-21
1.09275919276 	0.00277609789363 	-5.48810214806e-22
1.07434467319 	0.00373268331394 	7.10554046779e-22
1.06123066021 	0.00393050762616 	-6.49236265552e-23
1.05173247491 	0.00367406583258 	2.59551721802e-22
1.04491640082 	0.00289800011781 	3.37686012968e-22
1.04041529815 	0.00220826777965 	3.84044120426e-23
1.0418689905 	-0.00252546834571 	1.23895793201e-21
1.04595955092 	-0.00386978072789 	1.02008031951e-21
1.05159114224 	-0.00534463208122 	-3.99268408309e-22
1.05912975037 	-0.00672925838094 	-1.53751684376e-22
1.06776945868 	-0.00830922290554 	5.05543351158e-22
1.07772616709 	-0.00938884174509 	1.86020735682e-22
1.08736321461 	-0.00885812371663 	-2.14835630976e-22
1.09184639765 	-0.0048422196526 	5.50120846907e-22
1.08959216835 	0.00945582419749 	1.74656817907e-20
1.06316079013 	0.0504821660975 	1.1682003881e-21
0.965017594019 	0.16649681973 	1.90166575849e-22
0.302853413386 	0.394935546402 	1.87553429363e-21
-0.0367052613289 	0.409037045694 	-4.92655525872e-22
0.625277286528 	0.11050146597 	2.07143501815e-21
1.26663645448 	-0.0872890709259 	-2.30320148973e-21
1.28069960007 	-0.0764910632071 	3.01958192232e-21
1.19460908479 	-0.054321006674 	2.99941265451e-20
1.14356143726 	-0.033673724429 	5.82576966396e-22
1.11255490513 	-0.0224030024748 	2.7960137535e-21
1.08855554906 	-0.0120137746625 	-2.61806980215e-22
1.07193452548 	-0.00620965496184 	-5.43663084605e-22
1.06004057748 	-0.00266863761107 	9.22327430775e-23
1.05134048207 	-0.00077093886131 	2.06564334433e-22
1.0452063403 	0.000114715170542 	-3.26005213947e-22
1.04089949319 	0.00047009503164 	-2.1275130155e-22
1.04287666331 	-0.000961062838148 	-1.53225377259e-21
1.04701297631 	-0.00152914581886 	-5.82357378387e-22
1.05263803087 	-0.00230357074565 	-1.21523331895e-22
1.06037352003 	-0.00300126688476 	-3.86209728908e-22
1.0694963853 	-0.00414827048448 	1.99306494665e-22
1.07905132614 	-0.00469685907591 	-1.00181403727e-21
1.08733131936 	-0.00890772848406 	-8.33507169134e-22
1.09089840674 	-0.0124593087374 	-6.39908265974e-22
1.07890643082 	-0.0178580303718 	1.10261847563e-21
1.0312814764 	-0.0269839157501 	-2.2904811882e-22
0.802489373952 	0.0358402985814 	7.3412116771e-22
0.174949849074 	0.161070787133 	6.2629283824e-22
0.231575821669 	-0.0207873435327 	-1.2779438087e-21
0.876863022854 	-0.249773614098 	5.89087348555e-21
1.24513421248 	-0.267174761945 	-4.08775008018e-21
1.22482298154 	-0.173252029492 	1.87370501209e-21
1.1546369758 	-0.104886006601 	4.1480566296e-21
1.12001280069 	-0.064291506084 	-1.00887686438e-21
1.09478086993 	-0.0381930777941 	1.05078759895e-21
1.07869536182 	-0.0244264565363 	8.59147581563e-22
1.06638403276 	-0.0140381125958 	-1.31405405751e-21
1.05652519292 	-0.00776521106854 	2.0432783146e-22
1.04929708504 	-0.00422461111692 	4.1356037125e-23
1.04421970564 	-0.00214694454716 	3.63684297977e-22
1.04050389696 	-0.000965806950877 	1.32471267161e-22
1.04296870752 	0.000441249481916 	1.8353277862e-21
1.0472897339 	0.00102335961008 	-3.46765320486e-21
1.05287584206 	0.00103383405308 	1.89580507611e-21
1.06051584131 	0.00197251253403 	7.32533632855e-24
1.07028501259 	0.000563214600594 	2.21945973765e-21
1.0810735221 	-0.00191057969666 	-5.42086983867e-22
1.09425468819 	-0.00599928602934 	-1.36130538868e-21
1.10393860323 	-0.0186110575388 	7.30994446209e-23
1.10782653575 	-0.045263089971 	2.91511616147e-22
1.06192728946 	-0.103278758879 	-4.8100229515e-22
0.721995673549 	-0.125548624761 	2.96313630142e-21
0.298781324479 	-0.233602492433 	4.5547994674e-23
0.450375368964 	-0.392669431309 	-3.80244560074e-22
0.904719435148 	-0.460791215475 	1.0831958706e-22
1.13321895381 	-0.362167275162 	-8.01122588186e-21
1.11424226578 	-0.215167654812 	9.91984212661e-22
1.09410405834 	-0.127645144534 	1.12207346707e-21
1.08347371833 	-0.0775303711281 	1.16128978952e-22
1.07342922494 	-0.0468848835756 	-2.0950936865e-21
1.06427064339 	-0.0279562979879 	-5.70223160191e-22
1.05754588247 	-0.0174677660275 	1.47728002032e-21
1.05148921194 	-0.0106166763523 	-1.02420452741e-24
1.04617263811 	-0.00617263302812 	-1.01820468192e-21
1.04237803525 	-0.00352430719554 	1.47992643271e-21
1.03945098027 	-0.00181044328613 	-1.80737067627e-23
1.04229967848 	0.0019773848562 	-1.37020663431e-21
1.04668502559 	0.00373467738596 	6.27694053178e-23
1.05142620489 	0.00522830423424 	3.77867171466e-21
1.05949175955 	0.00543881079795 	-1.6982875403e-21
1.07041018465 	0.00644975748372 	2.3538377769e-21
1.0835296907 	0.00716559764237 	-2.43457383616e-21
1.10307134524 	0.00373565132636 	2.68620969601e-22
1.1247712019 	-0.00692007203697 	8.66946797086e-25
1.16635502076 	-0.0392124148442 	7.70882806758e-22
1.15271837672 	-0.109126370888 	-7.81835422579e-22
0.819585048452 	-0.248835340419 	8.76707008057e-22
0.454835755479 	-0.464787911202 	8.75843298411e-22
0.50946414223 	-0.524447548106 	-2.38302695037e-22
0.826299823255 	-0.454415847625 	-1.37202043058e-21
0.96999823799 	-0.331562134647 	-9.26672190898e-24
1.00194151632 	-0.19742989473 	-1.56485672412e-21
1.02922679967 	-0.11685136175 	1.20451942778e-21
1.04539946281 	-0.0707613648196 	1.78319008656e-23
1.04948447047 	-0.0436757700261 	3.02711106347e-22
1.05100006751 	-0.0262748493699 	-1.8852817331e-21
1.04829719928 	-0.015987350529 	1.48223271621e-21
1.045736777 	-0.00991449193861 	-3.16626347398e-22
1.04293802847 	-0.00624537482446 	-1.81053197474e-21
1.04043341912 	-0.00395321644249 	2.48942753871e-24
1.03809006652 	-0.00218996670443 	2.90522523081e-22
1.0405351094 	0.00356424081673 	1.16465549745e-21
1.04493918392 	0.00547016187039 	-6.26354047711e-22
1.04932092576 	0.00722821156172 	-3.92493159275e-22
1.05726555141 	0.0107743544084 	3.77547303055e-22
1.06763538715 	0.013736169748 	2.61936895991e-22
1.08340326682 	0.0194874666305 	9.97733376844e-22
1.10461323638 	0.0213604114301 	1.35618330609e-22
1.13556886362 	0.0257601994122 	-1.34299741506e-22
1.20313542761 	0.0189263583286 	-5.14843032212e-23
1.23554964357 	0.00075821683783 	2.47146564644e-22
1.03771464303 	-0.0797715232789 	-1.7079069271e-21
0.619475012753 	-0.345990676904 	-1.69366081462e-21
0.50406393107 	-0.447330823565 	-6.19864968275e-22
0.673884486601 	-0.369140814619 	1.17944752041e-22
0.839888400391 	-0.214477536457 	1.53057287279e-22
0.920075721594 	-0.132308230799 	-1.08538747702e-22
0.976433028275 	-0.0768669753061 	-4.29061003315e-23
1.01616361353 	-0.0456596314369 	7.62398708716e-23
1.03171636438 	-0.028223191107 	8.82270163266e-23
1.04025083846 	-0.0182021712834 	3.60095359873e-22
1.04267698467 	-0.0116291383704 	1.49080686599e-22
1.04168897452 	-0.00762414373166 	4.97989969013e-23
1.03997667599 	-0.00495103179006 	-1.80924337529e-22
1.03852823648 	-0.00366318716196 	-4.47072239364e-22
1.03674592573 	-0.00213805651777 	-2.32031785717e-22
1.03832036926 	0.00464310481503 	-3.23135994258e-21
1.04135894139 	0.00689978069933 	1.0586597513e-21
1.04620775213 	0.010258212797 	-1.49150539328e-23
1.0532671318 	0.0144878829852 	8.04916777039e-23
1.06163089646 	0.0211860021584 	-6.07327039235e-22
1.07621357383 	0.0307231233194 	-4.01152855012e-22
1.09385688243 	0.0427317175778 	1.37068197384e-21
1.11949462275 	0.0654785157908 	3.60883133339e-23
1.19163319092 	0.0910239561807 	7.24744617164e-23
1.23078213565 	0.147909967213 	-3.1016281331e-22
1.12343991735 	0.157307805986 	-2.5771441491e-21
0.851461408532 	0.0594106316423 	1.9452995804e-23
0.610606158517 	-0.0987830864058 	-4.57707453364e-22
0.584806909947 	-0.17346490424 	-3.16258339555e-22
0.711846935578 	-0.097956238534 	5.94682366116e-23
0.860477103584 	-0.0124098768483 	-2.71634911301e-23
0.949596716971 	-0.00507625011822 	-5.71761067976e-24
1.0052936234 	-0.00413680635106 	4.26246382971e-24
1.02794534875 	-0.00365970522444 	-3.07830194242e-22
1.03695162533 	-0.0053350534477 	1.79735457042e-22
1.04009482214 	-0.005269689842 	4.77781858052e-23
1.04033525954 	-0.00439797850514 	1.4779481391e-23
1.03898068917 	-0.0034789393939 	3.18066218696e-23
1.03688983495 	-0.00269694679157 	1.91030733119e-22
1.0355198114 	-0.00209424841561 	8.42206681207e-23
1.03564151768 	0.00450177095449 	-7.01002404677e-22
1.0381220619 	0.00763932925821 	-7.47677368401e-22
1.04184994357 	0.0117584853768 	2.19044202093e-22
1.04624119391 	0.0173826223571 	-2.32664062978e-23
1.05247113647 	0.025212022591 	2.11764625828e-22
1.061561769 	0.0372387946788 	5.87459822831e-22
1.07193177507 	0.0554405086163 	4.92448805709e-23
1.08943148146 	0.0828776549415 	-8.09212983061e-22
1.12441488308 	0.134159661222 	8.01587331658e-22
1.14703125689 	0.215762634845 	5.54869828561e-22
1.09040262283 	0.291971534924 	-9.11321490416e-22
0.927037948993 	0.303861159084 	0
0.737019137819 	0.251588185543 	2.27547636737e-36
0.650588530056 	0.178422199098 	3.60738692392e-25
0.699418506214 	0.130575558936 	5.4113581832e-22
0.840163011656 	0.108539668955 	-4.41724915283e-22
0.963138170912 	0.0749199521658 	-4.64537536854e-22
1.01350710176 	0.0384359591146 	6.57967468521e-22
1.03308851047 	0.0173887099309 	-3.88477420502e-23
1.04055496171 	0.00777540002071 	-3.08491115568e-22
1.04185666939 	0.00196037618089 	-3.68685121356e-24
1.04102146109 	-0.00077341672066 	5.52357895659e-23
1.03924097896 	-0.00175841855527 	3.40993807675e-23
1.03688617963 	-0.00175065360662 	-3.3047921812e-23
1.03486939937 	-0.0011279230622 	-3.50240072076e-23
1.0331856675 	0.0047173928355 	0
1.03486902968 	0.00772171186855 	0
1.03713636913 	0.0118220239966 	0
1.03978828003 	0.0176836613361 	0
1.04281840157 	0.0256647654457 	0
1.04635406196 	0.0385813393465 	0
1.05016510354 	0.0582188449218 	0
1.05317208294 	0.0866703586253 	0
1.05829553547 	0.136794879308 	0
1.06009789627 	0.218450409737 	0
1.02750605915 	0.312491303651 	0
0.911837762138 	0.372320642516 	0
0.763967497097 	0.377628266546 	0
0.700783547868 	0.341657398836 	0
0.750980562107 	0.287015756885 	0
0.894564785909 	0.214732199614 	0
1.02181177654 	0.134603163575 	0
1.05823131055 	0.0697006814613 	0
1.05797613188 	0.031435192453 	0
1.0531222442 	0.0150210989114 	0
1.04843658568 	0.00523723251944 	0
1.04410300597 	0.000704919434214 	0
1.04024140032 	-0.00113197932796 	0
1.03696671449 	-0.00155974409543 	0
1.03446523813 	-0.00113348499542 	0
1.03079023357 	0.00413744809489 	0
1.03170651779 	0.00665908399742 	0
1.03266333846 	0.0099861760082 	0
1.03350721739 	0.014925085011 	0
1.03322961505 	0.0220358302853 	0
1.03127474199 	0.0334076620042 	0
1.02734990482 	0.0516104788741 	0
1.01630393425 	0.0796112731668 	0
0.996416170223 	0.124935693939 	0
0.969866893574 	0.194237735357 	0
0.934861073655 	0.290716015288 	0
0.854779950384 	0.375805473159 	0
0.759751365975 	0.403353205987 	0
0.735750005569 	0.379505407948 	0
0.816765150217 	0.316240626739 	0
0.988281613999 	0.213043638346 	0
1.10984252869 	0.114559972661 	0
1.11542791542 	0.0546860280841 	0
1.08746837775 	0.0252221108267 	0
1.0672631812 	0.0112908298639 	0
1.05539559407 	0.00280674437953 	0
1.04701757649 	-0.000203308295361 	0
1.04107853267 	-0.00165306375638 	0
1.03684459912 	-0.00179307359361 	0
1.03393630051 	-0.00142238400248 	0
1.02877067026 	0.0030194612505 	0
1.02922500495 	0.00470051294982 	0
1.02924232862 	0.00671065385967 	0
1.02836058859 	0.00956716542191 	0
1.02506021373 	0.0140018925819 	0
1.01795848065 	0.0207992880588 	0
1.00489397557 	0.0328179035845 	0
0.981065491695 	0.0536695565041 	0
0.943617265068 	0.0864907123119 	0
0.891127537144 	0.135969691859 	0
0.838968429309 	0.211780120801 	0
0.788881863503 	0.289757948212 	0
0.755994418818 	0.31822115748 	0
0.788499668547 	0.281363453881 	0
0.918805632908 	0.188473069706 	0
1.09737023305 	0.082136286825 	0
1.1784531548 	0.0211911946164 	0
1.1465116745 	0.00368794085814 	0
1.10146098795 	0.000243785402435 	0
1.07502924867 	-0.00247124149004 	0
1.05916369705 	-0.00438560531744 	0
1.04821910832 	-0.00376263354505 	0
1.04148022986 	-0.00367632214889 	0
1.03653506999 	-0.00280648773939 	0
1.03336773689 	-0.00202527396297 	0
1.0274645953 	0.00154150290048 	0
1.02779097778 	0.0021561821761 	0
1.02748784053 	0.00249648838133 	0
1.02585181555 	0.00247375485574 	0
1.02118616212 	0.00208836557872 	0
1.01150950974 	0.000793742385156 	0
0.992902032586 	-0.000418665533234 	0
0.961723712904 	-0.000150984550164 	0
0.912837249363 	0.00617365986565 	0
0.842460373802 	0.0239791530501 	0
0.781696958165 	0.0574316909074 	0
0.753651237066 	0.0885942113069 	0
0.776494295587 	0.0910949306182 	0
0.874115384817 	0.0463027439522 	0
1.02712077915 	-0.0341055358874 	0
1.16096886344 	-0.0818860849562 	0
1.18741606374 	-0.070675535273 	0
1.1381783067 	-0.0446344141741 	0
1.09575196636 	-0.0271973779025 	0
1.07296775333 	-0.0183953593263 	0
1.05759488393 	-0.0131609531134 	0
1.04676580645 	-0.00895624037886 	0
1.04040753905 	-0.00663902448273 	0
1.03539493058 	-0.0043789024495 	0
1.03232711919 	-0.00281304480721 	0
1.02719881941 	0.000192319293061 	0
1.02791858488 	-0.000208666737254 	0
1.02836732198 	-0.00153226385495 	0
1.02808642776 	-0.00440466183865 	0
1.02562856951 	-0.00997318124985 	0
1.01935552192 	-0.0202214114974 	0
1.00447127976 	-0.0375835909249 	0
0.973919387551 	-0.0647531588371 	0
0.917337777864 	-0.0917045298155 	0
0.836736687133 	-0.109043700326 	0
0.776057512679 	-0.117195724335 	0
0.761093949141 	-0.132896321779 	0
0.80823977696 	-0.156369508961 	0
0.92656024071 	-0.181895039582 	0
1.05567751284 	-0.198584023413 	0
1.13631830081 	-0.172479021804 	0
1.14217934602 	-0.116395336938 	0
1.10534258152 	-0.0712680992258 	0
1.07749494859 	-0.0452296927971 	0
1.06236567209 	-0.0297868579984 	0
1.05078178691 	-0.0198722141752 	0
1.04230467776 	-0.0132918504312 	0
1.03720775651 	-0.00906203322073 	0
1.03302134858 	-0.0057636934053 	0
1.03049648953 	-0.00353375602143 	0
1.02775316423 	-0.000534895261165 	0
1.02945540957 	-0.00149847405523 	0
1.03167778239 	-0.00383081967993 	0
1.03451176728 	-0.0083707343619 	0
1.03735186927 	-0.0166085592592 	0
1.04002177353 	-0.031774528511 	0
1.03853714413 	-0.058041812047 	0
1.01662452654 	-0.103676829316 	0
0.956220562269 	-0.157991990293 	0
0.866980095971 	-0.202565726975 	0
0.803684394815 	-0.236359020053 	0
0.789840627411 	-0.26803675259 	0
0.826540291297 	-0.293100204332 	0
0.920707151793 	-0.296947055187 	0
1.01586923576 	-0.265321609319 	0
1.06977621715 	-0.201762819583 	0
1.08008898162 	-0.133593362484 	0
1.06542513103 	-0.0838435915447 	0
1.0540858801 	-0.0542603535164 	0
1.04709757805 	-0.0351422241344 	0
1.04073790867 	-0.0226867873612 	0
1.03578511875 	-0.0148982412449 	0
1.03257880245 	-0.00981321748582 	0
1.02981842118 	-0.0062213068264 	0
1.02811193199 	-0.00378592023837 	0
1.02856369716 	-0.000585416896636 	0
1.03140506176 	-0.00151703890725 	0
1.0355641891 	-0.00370283513615 	0
1.04151682356 	-0.00787590824376 	0
1.04998294086 	-0.0148376233134 	0
1.06239224734 	-0.0280917823046 	0
1.07824487292 	-0.0500601087909 	0
1.07496276595 	-0.0926392533787 	0
1.01694491807 	-0.160359856545 	0
0.915032362217 	-0.22740498695 	0
0.840199509316 	-0.277447561988 	0
0.818101985766 	-0.311871609138 	0
0.835388947582 	-0.33181108085 	0
0.892933600801 	-0.323911812313 	0
0.952402909757 	-0.271564309369 	0
0.995429791885 	-0.198561585869 	0
1.0193579796 	-0.1335211129 	0
1.02440585062 	-0.0855643420567 	0
1.02795301094 	-0.0546611155404 	0
1.02996767458 	-0.0339235481838 	0
1.02978719437 	-0.02101522009 	0
1.02896718459 	-0.0132629565822 	0
1.02799739922 	-0.00845642887462 	0
1.02675219222 	-0.00530763396303 	0
1.02583449991 	-0.00320945215308 	0
1.02911691118 	-0.000132349557984 	0
1.03266750529 	-0.000567245583863 	0
1.03805685353 	-0.00149436305949 	0
1.04576568737 	-0.00349870941339 	0
1.05774853529 	-0.0063595328436 	0
1.07591980154 	-0.0125197604612 	0
1.10353572543 	-0.0211717327899 	0
1.12571801882 	-0.040069654074 	0
1.09142387077 	-0.0898640246921 	0
0.986133393053 	-0.166004329963 	0
0.887153548002 	-0.239666828169 	0
0.841699403107 	-0.283902925508 	0
0.835077926785 	-0.299141428429 	0
0.855440943481 	-0.27706924201 	0
0.885251274904 	-0.218949141499 	0
0.926756006666 	-0.156083680527 	0
0.965822402713 	-0.102461660205 	0
0.986827121831 	-0.0645028810622 	0
1.00247442209 	-0.0397853136186 	0
1.01374228471 	-0.023263436394 	0
1.02014637217 	-0.0138897084014 	0
1.02337184392 	-0.00845943296103 	0
1.02454331099 	-0.00528593367085 	0
1.0245614584 	-0.00324532706181 	0
1.02422837522 	-0.00193731134595 	0
1.02906534078 	0.000761268518456 	0
1.03267109243 	0.00120822205714 	0
1.03834960127 	0.00202664227369 	0
1.04629792397 	0.0028102573889 	0
1.05898239302 	0.00454694755529 	0
1.07758424589 	0.0064518527096 	0
1.10618163571 	0.0113071470529 	0
1.14279872648 	0.0194878081383 	0
1.14242783324 	0.0143281537782 	0
1.06711652328 	-0.0261975360588 	0
0.960330319929 	-0.093872257601 	0
0.87821317687 	-0.142150675958 	0
0.831418647747 	-0.154760127356 	0
0.817584928784 	-0.135290206225 	0
0.832796614465 	-0.0987428181858 	0
0.877118021967 	-0.0639185177835 	0
0.927977230065 	-0.0323578396838 	0
0.962460766848 	-0.0139823462852 	0
0.986802220311 	-0.00601372722777 	0
1.00450111856 	-0.00230688062784 	0
1.01526285714 	-0.00141577568976 	0
1.02072023046 	-0.00105667658315 	0
1.02297310007 	-0.000922043378665 	0
1.0235995321 	-0.000680465776393 	0
1.02353452244 	-0.000486805956117 	0
1.02825633801 	0.00192867671807 	0
1.03144997372 	0.00329676285137 	0
1.03659478889 	0.00558557818988 	0
1.04357833111 	0.00873821710139 	0
1.05463417868 	0.0140971604339 	0
1.06998424188 	0.0222549338023 	0
1.09172336593 	0.0360923547789 	0
1.12308400899 	0.0609552505117 	0
1.13767394193 	0.0920606226422 	0
1.09864976872 	0.104797971531 	0
1.01078961741 	0.0875783286227 	0
0.91107151696 	0.0664178360057 	0
0.836040335091 	0.0574303187526 	0
0.805636580626 	0.0539627905504 	0
0.815948025223 	0.0518790434544 	0
0.858726099951 	0.0534438487234 	0
0.915473383682 	0.056607759169 	0
0.960481411884 	0.0503712452461 	0
0.990301579571 	0.0357243849069 	0
1.00899061394 	0.021954006989 	0
1.01870325539 	0.012522747245 	0
1.02280052031 	0.00690264597082 	0
1.02407380443 	0.00360177482296 	0
1.02415113985 	0.00179985730903 	0
1.02378232956 	0.000828011167525 	0
1.02676854393 	0.00273491473546 	0
1.02923407516 	0.00466740755162 	0
1.03312841783 	0.0078461193248 	0
1.03814972614 	0.0126213837664 	0
1.0458751378 	0.0205008564716 	0
1.05603925651 	0.0330067610203 	0
1.06806943035 	0.052495051913 	0
1.08482498184 	0.0845802732114 	0
1.0970118425 	0.13005941345 	0
1.07293116927 	0.173282250723 	0
1.00231637399 	0.200335476024 	0
0.91319492131 	0.212761105585 	0
0.84567817841 	0.209937358056 	0
0.821350587804 	0.19336760181 	0
0.830795207558 	0.171079119717 	0
0.870342283811 	0.149855539807 	0
0.93056081586 	0.1288058262 	0
0.983193024773 	0.0994984300338 	0
1.01479004174 	0.0648315034383 	0
1.02773620883 	0.037921278033 	0
1.03025347357 	0.0217771174464 	0
1.02950372116 	0.0123488761913 	0
1.02785488086 	0.00681871711855 	0
1.02624044199 	0.00361818760324 	0
1.02491095668 	0.00183256729741 	0
1.02489075552 	0.00263794315753 	0
1.02637472213 	0.0046325607844 	0
1.02852097146 	0.00800509824289 	0
1.03083936139 	0.0133397157437 	0
1.03401554925 	0.0223347694406 	0
1.03765581596 	0.0370277295854 	0
1.03984635975 	0.0598054724182 	0
1.04261722385 	0.0931584785585 	0
1.04541100351 	0.139441386985 	0
1.02258508348 	0.194703697948 	0
0.965338020584 	0.242114592218 	0
0.898907416604 	0.269263337435 	0
0.854285260844 	0.270856548049 	0
0.844664273034 	0.254870873542 	0
0.858940855338 	0.229657049248 	0
0.900874491209 	0.196997178067 	0
0.966111526201 	0.159171228398 	0
1.02449846859 	0.111447059336 	0
1.0523379569 	0.0668100179179 	0
1.05272234321 	0.0386201080279 	0
1.04488600663 	0.0224496567905 	0
1.03807271985 	0.0131123168514 	0
1.03291548913 	0.00748001209902 	0
1.029207184 	0.00413693886851 	0
1.02662561307 	0.00218287761409 	0
1.02320486092 	0.00176043385229 	0
1.02374947373 	0.00323563235529 	0
1.02416665815 	0.00585449654867 	0
1.02364651326 	0.0100948329574 	0
1.02188567116 	0.0175852361349 	0
1.01825972436 	0.030329552754 	0
1.0115774844 	0.0512307362818 	0
1.00372115144 	0.0798039106874 	0
0.994149773279 	0.120060604334 	0
0.964535697946 	0.173738401631 	0
0.920751896785 	0.22708871796 	0
0.881357151088 	0.263132568248 	0
0.858784195796 	0.270433044302 	0
0.863018479795 	0.258698105796 	0
0.887862606216 	0.232754714035 	0
0.940871373726 	0.190144535931 	0
1.01748919006 	0.136122212688 	0
1.07553807703 	0.0803508460001 	0
1.0878687049 	0.0436637325411 	0