# Forces           
# CofR             : (0.000000000000e+00 0.000000000000e+00 0.000000000000e+00)
# Time             forces(pressure viscous porous) moment(pressure viscous porous)
1.000000000000e-01	((6.272385719596e-01 2.337525927181e-04 1.070287892509e-21) (6.460314597952e-01 -6.444908022058e-06 3.798395388431e-21) (0.000000000000e+00 0.000000000000e+00 0.000000000000e+00)) ((-1.168762963591e-04 3.136192859798e-01 8.932335123293e-16) (3.222454011019e-06 3.230157298976e-01 -1.861650886740e-06) (0.000000000000e+00 0.000000000000e+00 0.000000000000e+00))
2.000000000000e-01	((4.988198365244e-01 1.743135048136e-05 1.268658521317e-21) (4.473760052070e-01 -4.938049392097e-06 3.858345516134e-21) (0.000000000000e+00 0.000000000000e+00 0.000000000000e+00)) ((-8.715675240711e-06 2.494099182622e-01 4.137620422066e-16) (2.469024696055e-06 2.236880026035e-01 -1.219365567363e-06) (0.000000000000e+00 0.000000000000e+00 0.000000000000e+00))
3.000000000000e-01	((4.651347623220e-01 -5.699893863187e-06 1.300902345372e-21) (3.696791037409e-01 -5.961657076102e-06 3.821613712597e-21) (0.000000000000e+00 0.000000000000e+00 0.000000000000e+00)) ((2.849946931606e-06 2.325673811610e-01 1.612208630486e-16) (2.980828538055e-06 1.848395518704e-01 -1.726570038482e-06) (0.000000000000e+00 0.000000000000e+00 0.000000000000e+00))
4.000000000000e-01	((4.608991708212e-01 -3.084225596854e-05 1.296916849197e-21) (3.259998720512e-01 -6.630159096161e-06 3.768464786192e-21) (0.000000000000e+00 0.000000000000e+00 0.000000000000e+00)) ((1.542112798430e-05 2.304495854106e-01 2.511304457843e-16) (3.315079548080e-06 1.629999360256e-01 -1.952544608634e-06) (0.000000000000e+00 0.000000000000e+00 0.000000000000e+00))
5.000000000000e-01	((4.690975835383e-01 -2.589290387325e-05 1.278010705670e-21) (2.976174141897e-01 -6.917816957343e-06 3.704367002405e-21) (0.000000000000e+00 0.000000000000e+00 0.000000000000e+00)) ((1.294645193657e-05 2.345487917692e-01 2.634746804411e-16) (3.458908478671e-06 1.488087070948e-01 -1.997308971502e-06) (0.000000000000e+00 0.000000000000e+00 0.000000000000e+00))
6.000000000000e-01	((4.826489545166e-01 -1.728568564378e-05 1.255969013551e-21) (2.777771478593e-01 -5.595922707923e-06 3.638626876435e-21) (0.000000000000e+00 0.000000000000e+00 0.000000000000e+00)) ((8.642842821846e-06 2.413244772583e-01 1.362028979185e-18) (2.797961353957e-06 1.388885739297e-01 -1.844412837563e-06) (0.000000000000e+00 0.000000000000e+00 0.000000000000e+00))
7.000000000000e-01	((4.983519604644e-01 -4.795254774870e-06 1.233317783374e-21) (2.632092881021e-01 -4.660541633096e-06 3.571622436156e-21) (0.000000000000e+00 0.000000000000e+00 0.000000000000e+00)) ((2.397627387435e-06 2.491759802322e-01 2.236166980751e-18) (2.330270816541e-06 1.316046440510e-01 -1.828371403148e-06) (0.000000000000e+00 0.000000000000e+00 0.000000000000e+00))
8.000000000000e-01	((5.137440468765e-01 1.010095821479e-05 1.212396383077e-21) (2.521422490547e-01 -3.809239932430e-06 3.506182749197e-21) (0.000000000000e+00 0.000000000000e+00 0.000000000000e+00)) ((-5.050479107473e-06 2.568720234383e-01 -1.930557493382e-17) (1.904619966216e-06 1.260711245273e-01 -1.837408625467e-06) (0.000000000000e+00 0.000000000000e+00 0.000000000000e+00))
9.000000000000e-01	((5.281999821314e-01 1.947511289564e-05 1.191449191627e-21) (2.435020290268e-01 -2.760905399503e-06 3.440888520129e-21) (0.000000000000e+00 0.000000000000e+00 0.000000000000e+00)) ((-9.737556447893e-06 2.640999910657e-01 2.237522233467e-17) (1.380452699759e-06 1.217510145134e-01 -1.874673350249e-06) (0.000000000000e+00 0.000000000000e+00 0.000000000000e+00))
1.000000000000e+00	((5.409396647863e-01 3.190019192547e-05 1.171320191981e-21) (2.366041451184e-01 -1.526517973957e-06 3.378953800781e-21) (0.000000000000e+00 0.000000000000e+00 0.000000000000e+00)) ((-1.595009596273e-05 2.704698323932e-01 3.739142242359e-17) (7.632589869790e-07 1.183020725592e-01 -1.922540422864e-06) (0.000000000000e+00 0.000000000000e+00 0.000000000000e+00))
1.100000000000e+00	((5.518021504998e-01 3.764485470474e-05 1.151435444754e-21) (2.309910028267e-01 -2.090747051285e-07 3.319490934234e-21) (0.000000000000e+00 0.000000000000e+00 0.000000000000e+00)) ((-1.882242735236e-05 2.759010752499e-01 2.173689830562e-16) (1.045373525716e-07 1.154955014134e-01 -1.988829770541e-06) (0.000000000000e+00 0.000000000000e+00 0.000000000000e+00))
1.200000000000e+00	((5.606501023722e-01 5.447751869382e-05 1.132008234626e-21) (2.263386176330e-01 1.353784277805e-06 3.262892255159e-21) (0.000000000000e+00 0.000000000000e+00 0.000000000000e+00)) ((-2.723875934688e-05 2.803250511861e-01 1.744616820801e-16) (-6.768921388986e-07 1.131693088165e-01 -2.039516388497e-06) (0.000000000000e+00 0.000000000000e+00 0.000000000000e+00))
1.300000000000e+00	((5.672799519733e-01 6.657419220910e-05 1.112586366847e-21) (2.224053577248e-01 2.949084363413e-06 3.208918061763e-21) (0.000000000000e+00 0.000000000000e+00 0.000000000000e+00)) ((-3.328709610455e-05 2.836399759867e-01 -7.602967734555e-18) (-1.474542181706e-06 1.112026788624e-01 -2.093667731174e-06) (0.000000000000e+00 0.000000000000e+00 0.000000000000e+00))
1.400000000000e+00	((5.722597603817e-01 8.750010743152e-05 1.093392294843e-21) (2.190265971628e-01 4.612537939428e-06 3.159091302340e-21) (0.000000000000e+00 0.000000000000e+00 0.000000000000e+00)) ((-4.375005371572e-05 2.861298801908e-01 -1.108461196095e-16) (-2.306268969711e-06 1.095132985814e-01 -2.136082629616e-06) (0.000000000000e+00 0.000000000000e+00 0.000000000000e+00))
1.500000000000e+00	((5.758856305552e-01 8.636617858172e-05 1.074793904481e-21) (2.160933899648e-01 6.251993164742e-06 3.111497431457e-21) (0.000000000000e+00 0.000000000000e+00 0.000000000000e+00)) ((-4.318308929085e-05 2.879428152776e-01 -5.051026871067e-17) (-3.125996582368e-06 1.080466949824e-01 -2.177273359686e-06) (0.000000000000e+00 0.000000000000e+00 0.000000000000e+00))
1.600000000000e+00	((5.778836153682e-01 9.676623977910e-05 1.056544723400e-21) (2.134937321499e-01 7.916982992653e-06 3.066437951688e-21) (0.000000000000e+00 0.000000000000e+00 0.000000000000e+00)) ((-4.838311988955e-05 2.889418076841e-01 -1.018878991593e-16) (-3.958491496322e-06 1.067468660749e-01 -2.200914354268e-06) (0.000000000000e+00 0.000000000000e+00 0.000000000000e+00))
1.700000000000e+00	((5.789160461684e-01 1.050487939729e-04 1.039223543327e-21) (2.111714483038e-01 9.600405343549e-06 3.024375650074e-21) (0.000000000000e+00 0.000000000000e+00 0.000000000000e+00)) ((-5.252439698644e-05 2.894580230842e-01 -1.235719426090e-16) (-4.800202671774e-06 1.055857241519e-01 -2.205679228722e-06) (0.000000000000e+00 0.000000000000e+00 0.000000000000e+00))
1.800000000000e+00	((5.787353402456e-01 1.105282755869e-04 1.021765059516e-21) (2.090625922320e-01 1.104520727675e-05 2.983964556701e-21) (0.000000000000e+00 0.000000000000e+00 0.000000000000e+00)) ((-5.526413779345e-05 2.893676701228e-01 -1.520593546911e-16) (-5.522603638377e-06 1.045312961160e-01 -2.199869775015e-06) (0.000000000000e+00 0.000000000000e+00 0.000000000000e+00))
1.900000000000e+00	((5.780999491489e-01 1.245428491899e-04 1.005192795155e-21) (2.071340269979e-01 1.258781576915e-05 2.946238528234e-21) (0.000000000000e+00 0.000000000000e+00 0.000000000000e+00)) ((-6.227142459493e-05 2.890499745744e-01 -1.887053881211e-16) (-6.293907884578e-06 1.035670134989e-01 -2.167321706897e-06) (0.000000000000e+00 0.000000000000e+00 0.000000000000e+00))
2.000000000000e+00	((5.766787973838e-01 1.233038734549e-04 9.888320249116e-22) (2.053629771325e-01 1.389108847549e-05 2.911099337495e-21) (0.000000000000e+00 0.000000000000e+00 0.000000000000e+00)) ((-6.165193672743e-05 2.883393986919e-01 -2.085191828233e-16) (-6.945544237753e-06 1.026814885662e-01 -2.135243843963e-06) (0.000000000000e+00 0.000000000000e+00 0.000000000000e+00))
2.100000000000e+00	((5.748971504988e-01 1.244326671298e-04 9.734782682429e-22) (2.037163803960e-01 1.527494089080e-05 2.880208970068e-21) (0.000000000000e+00 0.000000000000e+00 0.000000000000e+00)) ((-6.221633356489e-05 2.874485752494e-01 -2.247822154106e-16) (-7.637470445401e-06 1.018581901980e-01 -2.063328135821e-06) (0.000000000000e+00 0.000000000000e+00 0.000000000000e+00))
2.200000000000e+00	((5.728248529643e-01 1.254101606305e-04 9.585968918946e-22) (2.021859629440e-01 1.625434024095e-05 2.851220796610e-21) (0.000000000000e+00 0.000000000000e+00 0.000000000000e+00)) ((-6.270508031517e-05 2.864124264821e-01 -2.318566345860e-16) (-8.127170120474e-06 1.010929814720e-01 -2.004907710127e-06) (0.000000000000e+00 0.000000000000e+00 0.000000000000e+00))
2.300000000000e+00	((5.705009478320e-01 1.324920670857e-04 9.438893045845e-22) (2.007509794853e-01 1.739507733648e-05 2.823607045014e-21) (0.000000000000e+00 0.000000000000e+00 0.000000000000e+00)) ((-6.624603354280e-05 2.852504739160e-01 -2.759023478432e-16) (-8.697538668238e-06 1.003754897426e-01 -1.903332581651e-06) (0.000000000000e+00 0.000000000000e+00 0.000000000000e+00))
2.400000000000e+00	((5.680431490873e-01 1.362439139690e-04 9.301234638588e-22) (1.994106109082e-01 1.835879202750e-05 2.798284726245e-21) (0.000000000000e+00 0.000000000000e+00 0.000000000000e+00)) ((-6.812195698448e-05 2.840215745436e-01 -2.993482198232e-16) (-9.179396013752e-06 9.970530545412e-02 -1.796581000105e-06) (0.000000000000e+00 0.000000000000e+00 0.000000000000e+00))
2.500000000000e+00	((5.655336644973e-01 1.397341294891e-04 9.167770350733e-22) (1.981441782797e-01 1.920301849335e-05 2.774211850316e-21) (0.000000000000e+00 0.000000000000e+00 0.000000000000e+00)) ((-6.986706474451e-05 2.827668322487e-01 -3.095126151903e-16) (-9.601509246682e-06 9.907208913986e-02 -1.671899753980e-06) (0.000000000000e+00 0.000000000000e+00 0.000000000000e+00))
2.600000000000e+00	((5.629234954757e-01 1.378025251533e-04 9.038253490558e-22) (1.969518033670e-01 2.000324696236e-05 2.751551753311e-21) (0.000000000000e+00 0.000000000000e+00 0.000000000000e+00)) ((-6.890126257668e-05 2.814617477379e-01 -3.283506279372e-16) (-1.000162348117e-05 9.847590168350e-02 -1.530589685076e-06) (0.000000000000e+00 0.000000000000e+00 0.000000000000e+00))
2.700000000000e+00	((5.604241748256e-01 1.366596932098e-04 8.913723304326e-22) (1.958301316719e-01 2.040451571477e-05 2.730237760033e-21) (0.000000000000e+00 0.000000000000e+00 0.000000000000e+00)) ((-6.832984660487e-05 2.802120874128e-01 -3.446407655788e-16) (-1.020225785739e-05 9.791506583596e-02 -1.382037796304e-06) (0.000000000000e+00 0.000000000000e+00 0.000000000000e+00))
2.800000000000e+00	((5.580991753900e-01 1.303011334709e-04 8.799015636530e-22) (1.947770175955e-01 2.083117944502e-05 2.710537197467e-21) (0.000000000000e+00 0.000000000000e+00 0.000000000000e+00)) ((-6.515056673541e-05 2.790495876950e-01 -3.726944967919e-16) (-1.041558972251e-05 9.738850879777e-02 -1.217340709560e-06) (0.000000000000e+00 0.000000000000e+00 0.000000000000e+00))
2.900000000000e+00	((5.557059012858e-01 1.318353979443e-04 8.684559526792e-22) (1.937828898520e-01 2.114802751343e-05 2.691479507666e-21) (0.000000000000e+00 0.000000000000e+00 0.000000000000e+00)) ((-6.591769897220e-05 2.778529506429e-01 -3.579493472461e-16) (-1.057401375671e-05 9.689144492599e-02 -1.044681393245e-06) (0.000000000000e+00 0.000000000000e+00 0.000000000000e+00))
3.000000000000e+00	((5.535877097540e-01 1.249874046182e-04 8.582626132631e-22) (1.928462070536e-01 2.114518135521e-05 2.674368038875e-21) (0.000000000000e+00 0.000000000000e+00 0.000000000000e+00)) ((-6.249370230911e-05 2.767938548770e-01 -3.549677912718e-16) (-1.057259067761e-05 9.642310352678e-02 -8.633837792504e-07) (0.000000000000e+00 0.000000000000e+00 0.000000000000e+00))
3.100000000000e+00	((5.511324024158e-01 1.414255622104e-04 8.467474574152e-22) (1.919514211955e-01 2.113103302639e-05 2.655982532594e-21) (0.000000000000e+00 0.000000000000e+00 0.000000000000e+00)) ((-7.071278110518e-05 2.755662012079e-01 -3.867620199799e-16) (-1.056551651319e-05 9.597571059777e-02 -6.669596209169e-07) (0.000000000000e+00 0.000000000000e+00 0.000000000000e+00))
3.200000000000e+00	((5.491683843376e-01 1.148009238717e-04 8.368614741071e-22) (1.911178257625e-01 2.115191023829e-05 2.639976150884e-21) (0.000000000000e+00 0.000000000000e+00 0.000000000000e+00)) ((-5.740046193579e-05 2.745841921688e-01 -3.613916891437e-16) (-1.057595511914e-05 9.555891288123e-02 -4.688057360304e-07) (0.000000000000e+00 0.000000000000e+00 0.000000000000e+00))
3.300000000000e+00	((5.471656895186e-01 1.101925063622e-04 8.274389877253e-22) (1.903296288288e-01 2.056499030736e-05 2.624812963913e-21) (0.000000000000e+00 0.000000000000e+00 0.000000000000e+00)) ((-5.509625318105e-05 2.735828447593e-01 -3.625029963705e-16) (-1.028249515367e-05 9.516481441438e-02 -2.837487124300e-07) (0.000000000000e+00 0.000000000000e+00 0.000000000000e+00))
3.400000000000e+00	((5.453355079958e-01 1.014977322258e-04 8.190766322521e-22) (1.895853687906e-01 2.002272029918e-05 2.611250721585e-21) (0.000000000000e+00 0.000000000000e+00 0.000000000000e+00)) ((-5.074886611286e-05 2.726677539979e-01 -3.510917685051e-16) (-1.001136014959e-05 9.479268439532e-02 -9.000754038445e-08) (0.000000000000e+00 0.000000000000e+00 0.000000000000e+00))
3.500000000000e+00	((5.433665437595e-01 9.079788910033e-05 8.098056492326e-22) (1.888743755784e-01 1.954966717568e-05 2.596736807614e-21) (0.000000000000e+00 0.000000000000e+00 0.000000000000e+00)) ((-4.539894455018e-05 2.716832718797e-01 -3.387047586845e-16) (-9.774833587848e-06 9.443718778920e-02 1.089901656495e-07) (0.000000000000e+00 0.000000000000e+00 0.000000000000e+00))
3.600000000000e+00	((5.416924208167e-01 8.665249220753e-05 8.014634947937e-22) (1.882073054610e-01 1.876022870327e-05 2.583528620522e-21) (0.000000000000e+00 0.000000000000e+00 0.000000000000e+00)) ((-4.332624610377e-05 2.708462104084e-01 -3.248540759310e-16) (-9.380114351627e-06 9.410365273051e-02 2.909118763761e-07) (0.000000000000e+00 0.000000000000e+00 0.000000000000e+00))
3.700000000000e+00	((5.400415891649e-01 7.747207519716e-05 7.933852644628e-22) (1.875797150737e-01 1.784920988778e-05 2.570815127994e-21) (0.000000000000e+00 0.000000000000e+00 0.000000000000e+00)) ((-3.873603759859e-05 2.700207945824e-01 -3.143644199122e-16) (-8.924604943888e-06 9.378985753683e-02 4.707635558130e-07) (0.000000000000e+00 0.000000000000e+00 0.000000000000e+00))
3.800000000000e+00	((5.384886771734e-01 6.763099046955e-05 7.859456474251e-22) (1.869837031573e-01 1.684918416189e-05 2.558983230025e-21) (0.000000000000e+00 0.000000000000e+00 0.000000000000e+00)) ((-3.381549523483e-05 2.692443385867e-01 -3.045388377240e-16) (-8.424592080948e-06 9.349185157863e-02 6.454380092357e-07) (0.000000000000e+00 0.000000000000e+00 0.000000000000e+00))
3.900000000000e+00	((5.369254246090e-01 5.838401245908e-05 7.783997833495e-22) (1.864217874170e-01 1.574991115113e-05 2.547076283837e-21) (0.000000000000e+00 0.000000000000e+00 0.000000000000e+00)) ((-2.919200622955e-05 2.684627123045e-01 -2.982098075421e-16) (-7.874955575562e-06 9.321089370850e-02 8.125158664049e-07) (0.000000000000e+00 0.000000000000e+00 0.000000000000e+00))
4.000000000000e+00	((5.354911302570e-01 4.718470866528e-05 7.713647737894e-22) (1.858817746417e-01 1.466830688535e-05 2.535842243875e-21) (0.000000000000e+00 0.000000000000e+00 0.000000000000e+00)) ((-2.359235433263e-05 2.677455651285e-01 -2.771085227601e-16) (-7.334153442676e-06 9.294088732087e-02 9.656960904825e-07) (0.000000000000e+00 0.000000000000e+00 0.000000000000e+00))
4.100000000000e+00	((5.340951331089e-01 3.814584287958e-05 7.645624705106e-22) (1.853701820626e-01 1.338281571369e-05 2.524934652865e-21) (0.000000000000e+00 0.000000000000e+00 0.000000000000e+00)) ((-1.907292143980e-05 2.670475665545e-01 -2.529240380501e-16) (-6.691407856844e-06 9.268509103129e-02 1.113095758443e-06) (0.000000000000e+00 0.000000000000e+00 0.000000000000e+00))
4.200000000000e+00	((5.327889769865e-01 2.815551465726e-05 7.581505999216e-22) (1.848829190066e-01 1.208415207978e-05 2.514602714673e-21) (0.000000000000e+00 0.000000000000e+00 0.000000000000e+00)) ((-1.407775732861e-05 2.663944884932e-01 -2.223630893132e-16) (-6.042076039890e-06 9.244145950330e-02 1.257338425848e-06) (0.000000000000e+00 0.000000000000e+00 0.000000000000e+00))
4.300000000000e+00	((5.314839971553e-01 1.831090253901e-05 7.518267236562e-22) (1.844192078265e-01 1.072796136407e-05 2.504584521354e-21) (0.000000000000e+00 0.000000000000e+00 0.000000000000e+00)) ((-9.155451269522e-06 2.657419985777e-01 -2.144416371905e-16) (-5.363980682030e-06 9.220960391327e-02 1.398338382560e-06) (0.000000000000e+00 0.000000000000e+00 0.000000000000e+00))
4.400000000000e+00	((5.301799248614e-01 7.384579398629e-06 7.456826135152e-22) (1.839727706141e-01 9.261509572790e-06 2.494738872130e-21) (0.000000000000e+00 0.000000000000e+00 0.000000000000e+00)) ((-3.692289699355e-06 2.650899624307e-01 -1.983276824019e-16) (-4.630754786395e-06 9.198638530705e-02 1.515781672624e-06) (0.000000000000e+00 0.000000000000e+00 0.000000000000e+00))
4.500000000000e+00	((5.290851939485e-01 -3.331113556482e-06 7.405744115144e-22) (1.835473057483e-01 7.807717407867e-06 2.486111952821e-21) (0.000000000000e+00 0.000000000000e+00 0.000000000000e+00)) ((1.665556778256e-06 2.645425969743e-01 -1.798894692061e-16) (-3.903858703934e-06 9.177365287415e-02 1.615038060770e-06) (0.000000000000e+00 0.000000000000e+00 0.000000000000e+00))
4.600000000000e+00	((5.276983804982e-01 -1.108860294786e-05 7.339954046049e-22) (1.831317628404e-01 6.344687007672e-06 2.475623378468e-21) (0.000000000000e+00 0.000000000000e+00 0.000000000000e+00)) ((5.544301473985e-06 2.638491902491e-01 -1.473362989772e-16) (-3.172343503833e-06 9.156588142018e-02 1.701175444644e-06) (0.000000000000e+00 0.000000000000e+00 0.000000000000e+00))
4.700000000000e+00	((5.264975762617e-01 -2.088254686709e-05 7.285590010990e-22) (1.827323967704e-01 4.844254788132e-06 2.466516083002e-21) (0.000000000000e+00 0.000000000000e+00 0.000000000000e+00)) ((1.044127343357e-05 2.632487881309e-01 -1.161892034408e-16) (-2.422127394059e-06 9.136619838518e-02 1.770678200624e-06) (0.000000000000e+00 0.000000000000e+00 0.000000000000e+00))
4.800000000000e+00	((5.253129013459e-01 -3.223592618075e-05 7.234374763810e-22) (1.823467444138e-01 3.318999783832e-06 2.457794804254e-21) (0.000000000000e+00 0.000000000000e+00 0.000000000000e+00)) ((1.611796309038e-05 2.626564506730e-01 -9.705472916229e-17) (-1.659499891927e-06 9.117337220690e-02 1.823411438364e-06) (0.000000000000e+00 0.000000000000e+00 0.000000000000e+00))
4.900000000000e+00	((5.241273003136e-01 -3.707142564764e-05 7.182780557312e-22) (1.819719987566e-01 1.889136250497e-06 2.449058067078e-21) (0.000000000000e+00 0.000000000000e+00 0.000000000000e+00)) ((1.853571282382e-05 2.620636501568e-01 -8.391470705154e-17) (-9.445681252453e-07 9.098599937828e-02 1.861150070972e-06) (0.000000000000e+00 0.000000000000e+00 0.000000000000e+00))
5.000000000000e+00	((5.229553348298e-01 -4.506498258485e-05 7.132399239607e-22) (1.816090045790e-01 4.058821772672e-07 2.440501397238e-21) (0.000000000000e+00 0.000000000000e+00 0.000000000000e+00)) ((2.253249129246e-05 2.614776674149e-01 -4.054662015212e-17) (-2.029410886410e-07 9.080450228950e-02 1.880882682978e-06) (0.000000000000e+00 0.000000000000e+00 0.000000000000e+00))
5.100000000000e+00	((5.217861152403e-01 -5.908213676291e-05 7.083226799423e-22) (1.812539764544e-01 -1.029100215546e-06 2.432121863946e-21) (0.000000000000e+00 0.000000000000e+00 0.000000000000e+00)) ((2.954106838141e-05 2.608930576202e-01 -2.070529687916e-17) (5.145501077758e-07 9.062698822721e-02 1.883577951617e-06) (0.000000000000e+00 0.000000000000e+00 0.000000000000e+00))
5.200000000000e+00	((5.206463591417e-01 -5.907530289631e-05 7.036301320305e-22) (1.809096149123e-01 -2.392848766473e-06 2.424050133771e-21) (0.000000000000e+00 0.000000000000e+00 0.000000000000e+00)) ((2.953765144819e-05 2.603231795709e-01 -3.970043423781e-18) (1.196424383236e-06 9.045480745613e-02 1.873070391586e-06) (0.000000000000e+00 0.000000000000e+00 0.000000000000e+00))
5.300000000000e+00	((5.194734286936e-01 -6.501681683465e-05 6.989276327798e-22) (1.805739710583e-01 -3.704666847948e-06 2.416051706694e-21) (0.000000000000e+00 0.000000000000e+00 0.000000000000e+00)) ((3.250840841733e-05 2.597367143468e-01 2.026949842780e-17) (1.852333423973e-06 9.028698552915e-02 1.844683411037e-06) (0.000000000000e+00 0.000000000000e+00 0.000000000000e+00))
5.400000000000e+00	((5.183862682180e-01 -7.096394416731e-05 6.946150594550e-22) (1.802457166089e-01 -4.981313140018e-06 2.408619370255e-21) (0.000000000000e+00 0.000000000000e+00 0.000000000000e+00)) ((3.548197208367e-05 2.591931341090e-01 4.467251763819e-17) (2.490656570008e-06 9.012285830447e-02 1.799057130649e-06) (0.000000000000e+00 0.000000000000e+00 0.000000000000e+00))
5.500000000000e+00	((5.173198575603e-01 -7.478314156880e-05 6.903619242777e-22) (1.799283771902e-01 -6.150372411746e-06 2.401226949308e-21) (0.000000000000e+00 0.000000000000e+00 0.000000000000e+00)) ((3.739157078443e-05 2.586599287801e-01 5.237712932642e-17) (3.075186205873e-06 8.996418859512e-02 1.741084335421e-06) (0.000000000000e+00 0.000000000000e+00 0.000000000000e+00))
5.600000000000e+00	((5.162928542847e-01 -7.895886212820e-05 6.862485575389e-22) (1.796203742998e-01 -7.396496400597e-06 2.394085923206e-21) (0.000000000000e+00 0.000000000000e+00 0.000000000000e+00)) ((3.947943106417e-05 2.581464271424e-01 7.311588400699e-17) (3.698248200295e-06 8.981018714988e-02 1.669452139738e-06) (0.000000000000e+00 0.000000000000e+00 0.000000000000e+00))
5.700000000000e+00	((5.152824233810e-01 -8.295266167480e-05 6.821624147700e-22) (1.793209615793e-01 -8.379485263221e-06 2.387047540038e-21) (0.000000000000e+00 0.000000000000e+00 0.000000000000e+00)) ((4.147633083739e-05 2.576412116905e-01 9.380381671073e-17) (4.189742631610e-06 8.966048078965e-02 1.581480642567e-06) (0.000000000000e+00 0.000000000000e+00 0.000000000000e+00))
5.800000000000e+00	((5.142995484278e-01 -8.540737856725e-05 6.782661230378e-22) (1.790296593833e-01 -9.356742777429e-06 2.380296084555e-21) (0.000000000000e+00 0.000000000000e+00 0.000000000000e+00)) ((4.270368928360e-05 2.571497742139e-01 1.079492669299e-16) (4.678371388715e-06 8.951482969165e-02 1.483637723964e-06) (0.000000000000e+00 0.000000000000e+00 0.000000000000e+00))
5.900000000000e+00	((5.133553494681e-01 -8.789110245334e-05 6.745351257854e-22) (1.787467392351e-01 -1.026056049663e-05 2.373803475568e-21) (0.000000000000e+00 0.000000000000e+00 0.000000000000e+00)) ((4.394555122664e-05 2.566776747340e-01 1.230366177864e-16) (5.130280248315e-06 8.937336961754e-02 1.375334654662e-06) (0.000000000000e+00 0.000000000000e+00 0.000000000000e+00))
6.000000000000e+00	((5.124224077497e-01 -8.155213956102e-05 6.708039266688e-22) (1.784725993966e-01 -1.105229632870e-05 2.367352648512e-21) (0.000000000000e+00 0.000000000000e+00 0.000000000000e+00)) ((4.077606978051e-05 2.562112038748e-01 1.360267150655e-16) (5.526148164348e-06 8.923629969828e-02 1.257014421558e-06) (0.000000000000e+00 0.000000000000e+00 0.000000000000e+00))
6.100000000000e+00	((5.115083429210e-01 -9.087068193465e-05 6.672099046578e-22) (1.782052406912e-01 -1.173077328854e-05 2.361134781871e-21) (0.000000000000e+00 0.000000000000e+00 0.000000000000e+00)) ((4.543534096731e-05 2.557541714605e-01 1.458590735172e-16) (5.865386644271e-06 8.910262034558e-02 1.130365861359e-06) (0.000000000000e+00 0.000000000000e+00 0.000000000000e+00))
6.200000000000e+00	((5.106224183443e-01 -8.984104110619e-05 6.637037770277e-22) (1.779453697693e-01 -1.230726288393e-05 2.355057629969e-21) (0.000000000000e+00 0.000000000000e+00 0.000000000000e+00)) ((4.492052055310e-05 2.553112091722e-01 1.574871418171e-16) (6.153631441962e-06 8.897268488464e-02 9.979635808193e-07) (0.000000000000e+00 0.000000000000e+00 0.000000000000e+00))
6.300000000000e+00	((5.097424686733e-01 -8.845399165836e-05 6.600774392178e-22) (1.776940158722e-01 -1.307018951999e-05 2.348875435885e-21) (0.000000000000e+00 0.000000000000e+00 0.000000000000e+00)) ((4.422699582921e-05 2.548712343367e-01 1.640397886971e-16) (6.535094760000e-06 8.884700793610e-02 8.634092307940e-07) (0.000000000000e+00 0.000000000000e+00 0.000000000000e+00))
6.400000000000e+00	((5.089150431041e-01 -8.933972133666e-05 6.568666680837e-22) (1.774462796415e-01 -1.336282190646e-05 2.343260402939e-21) (0.000000000000e+00 0.000000000000e+00 0.000000000000e+00)) ((4.466986066834e-05 2.544575215520e-01 1.710532215003e-16) (6.681410953228e-06 8.872313982075e-02 7.167595465086e-07) (0.000000000000e+00 0.000000000000e+00 0.000000000000e+00))
6.500000000000e+00	((5.081069259694e-01 -8.819061556669e-05 6.536750486001e-22) (1.772072093866e-01 -1.368755606105e-05 2.337714222780e-21) (0.000000000000e+00 0.000000000000e+00 0.000000000000e+00)) ((4.409530778338e-05 2.540534629847e-01 1.777413936518e-16) (6.843778030524e-06 8.860360469332e-02 5.704581846561e-07) (0.000000000000e+00 0.000000000000e+00 0.000000000000e+00))
6.600000000000e+00	((5.073084575171e-01 -8.592785315818e-05 6.505369593773e-22) (1.769745490917e-01 -1.393084644651e-05 2.332204491294e-21) (0.000000000000e+00 0.000000000000e+00 0.000000000000e+00)) ((4.296392657908e-05 2.536542287585e-01 1.808652511613e-16) (6.965423223262e-06 8.848727454585e-02 4.226211505229e-07) (0.000000000000e+00 0.000000000000e+00 0.000000000000e+00))
6.700000000000e+00	((5.065472705520e-01 -8.362673151566e-05 6.474908592698e-22) (1.767483782400e-01 -1.407413744440e-05 2.326849502176e-21) (0.000000000000e+00 0.000000000000e+00 0.000000000000e+00)) ((4.181336575781e-05 2.532736352760e-01 2.048261191732e-16) (7.037068722191e-06 8.837418911999e-02 2.732786468216e-07) (0.000000000000e+00 0.000000000000e+00 0.000000000000e+00))
6.800000000000e+00	((5.057940085066e-01 -7.945687369633e-05 6.445058971202e-22) (1.765286379690e-01 -1.415974191470e-05 2.321639385607e-21) (0.000000000000e+00 0.000000000000e+00 0.000000000000e+00)) ((3.972843684816e-05 2.528970042533e-01 1.873230303512e-16) (7.079870957348e-06 8.826431898448e-02 1.267729962603e-07) (0.000000000000e+00 0.000000000000e+00 0.000000000000e+00))
6.900000000000e+00	((5.050593027503e-01 -7.506813148360e-05 6.415732742205e-22) (1.763148506791e-01 -1.407191616738e-05 2.316556378067e-21) (0.000000000000e+00 0.000000000000e+00 0.000000000000e+00)) ((3.753406574181e-05 2.525296513752e-01 1.811566304952e-16) (7.035958083681e-06 8.815742533956e-02 -2.092386122785e-08) (0.000000000000e+00 0.000000000000e+00 0.000000000000e+00))
7.000000000000e+00	((5.043525286637e-01 -7.068116057874e-05 6.387457252272e-22) (1.761073168571e-01 -1.393418300218e-05 2.311663475676e-21) (0.000000000000e+00 0.000000000000e+00 0.000000000000e+00)) ((3.534058028944e-05 2.521762643319e-01 1.822814902491e-16) (6.967091501092e-06 8.805365842857e-02 -1.655151918721e-07) (0.000000000000e+00 0.000000000000e+00 0.000000000000e+00))
7.100000000000e+00	((5.036668592083e-01 -8.450585743765e-05 6.359778126883e-22) (1.759056229063e-01 -1.432625416190e-05 2.306952718131e-21) (0.000000000000e+00 0.000000000000e+00 0.000000000000e+00)) ((4.225292871885e-05 2.518334296041e-01 1.892745942617e-16) (7.163127080951e-06 8.795281145316e-02 -3.167113953595e-07) (0.000000000000e+00 0.000000000000e+00 0.000000000000e+00))
7.200000000000e+00	((5.029999446879e-01 -6.142278853844e-05 6.333145750817e-22) (1.757101615683e-01 -1.350663421543e-05 2.302337174777e-21) (0.000000000000e+00 0.000000000000e+00 0.000000000000e+00)) ((3.071139426923e-05 2.514999723439e-01 1.771992925656e-16) (6.753317107720e-06 8.785508078413e-02 -4.457891401720e-07) (0.000000000000e+00 0.000000000000e+00 0.000000000000e+00))
7.300000000000e+00	((5.023535706886e-01 -5.560801697245e-05 6.307367512209e-22) (1.755203340021e-01 -1.305108368066e-05 2.297924635361e-21) (0.000000000000e+00 0.000000000000e+00 0.000000000000e+00)) ((2.780400848624e-05 2.511767853443e-01 1.868893494822e-16) (6.525541840333e-06 8.776016700106e-02 -5.808846463545e-07) (0.000000000000e+00 0.000000000000e+00 0.000000000000e+00))
7.400000000000e+00	((5.017273765269e-01 -5.003131708397e-05 6.282212894172e-22) (1.753362723329e-01 -1.254322427123e-05 2.293626174904e-21) (0.000000000000e+00 0.000000000000e+00 0.000000000000e+00)) ((2.501565854202e-05 2.508636882634e-01 1.614648085374e-16) (6.271612135610e-06 8.766813616643e-02 -7.078843784918e-07) (0.000000000000e+00 0.000000000000e+00 0.000000000000e+00))
7.500000000000e+00	((5.011277022812e-01 -4.350791163451e-05 6.257380887238e-22) (1.751580119384e-01 -1.194965317741e-05 2.289425870948e-21) (0.000000000000e+00 0.000000000000e+00 0.000000000000e+00)) ((2.175395581730e-05 2.505638511406e-01 1.569111594130e-16) (5.974826588711e-06 8.757900596922e-02 -8.298803132476e-07) (0.000000000000e+00 0.000000000000e+00 0.000000000000e+00))
7.600000000000e+00	((5.005401523416e-01 -3.659607417908e-05 6.234998227592e-22) (1.749848259576e-01 -1.125600763232e-05 2.285556457224e-21) (0.000000000000e+00 0.000000000000e+00 0.000000000000e+00)) ((1.829803708955e-05 2.502700761708e-01 1.486983279564e-16) (5.628003816156e-06 8.749241297880e-02 -9.446192622141e-07) (0.000000000000e+00 0.000000000000e+00 0.000000000000e+00))
7.700000000000e+00	((4.999818096027e-01 -2.920966334644e-05 6.212210035146e-22) (1.748176004022e-01 -1.047952213112e-05 2.281681952503e-21) (0.000000000000e+00 0.000000000000e+00 0.000000000000e+00)) ((1.460483167316e-05 2.499909048013e-01 1.382764345734e-16) (5.239761065558e-06 8.740880020111e-02 -1.050531184844e-06) (0.000000000000e+00 0.000000000000e+00 0.000000000000e+00))
7.800000000000e+00	((4.993979867453e-01 -2.176841301841e-05 6.187148887435e-22) (1.746537732833e-01 -9.642421647189e-06 2.277475150026e-21) (0.000000000000e+00 0.000000000000e+00 0.000000000000e+00)) ((1.088420650921e-05 2.496989933726e-01 1.253879812479e-16) (4.821210823595e-06 8.732688664167e-02 -1.148366968935e-06) (0.000000000000e+00 0.000000000000e+00 0.000000000000e+00))