1.01406814531 	-0.00772599246144 	-9.32793684312e-22
1.01545119619 	-0.0120691540098 	-7.26119429113e-22
1.01713997409 	-0.0169624260059 	2.98895115501e-22
1.01919038637 	-0.0227580541579 	-2.63286220278e-23
1.02123938539 	-0.0296591772399 	-2.95275372608e-22
1.02278371674 	-0.0380508741203 	-1.93089256486e-22
1.0228120353 	-0.0479216590911 	-2.15663891865e-22
1.01940798553 	-0.0582686727961 	-1.20565872454e-21
1.01056006419 	-0.0707588019114 	1.79812690286e-20
0.991505111452 	-0.0782143990556 	1.47757916296e-21
0.96298313954 	-0.0746611309007 	7.31703642783e-23
0.932220628288 	-0.0510751396393 	1.9536059701e-21
0.916365103693 	-0.00798293232928 	-5.3746769761e-24
0.927667492749 	0.0364806692814 	2.08571490964e-22
0.955280955193 	0.0630964923821 	-1.63612629214e-21
0.982533978732 	0.0704366545751 	1.97303009922e-21
1.00193607643 	0.0663241897747 	2.13230327825e-20
1.01223077922 	0.0561015284797 	-1.74583553024e-21
1.01738733472 	0.0476753554487 	-1.86329829346e-21
1.01886638624 	0.0386422302905 	3.97241957878e-22
1.01857184341 	0.0305551170806 	1.01991467093e-21
1.01753361697 	0.0237028970768 	-4.14683519749e-23
1.01624286401 	0.0177822870411 	-5.28010484034e-22
1.01505341483 	0.0127230219952 	1.27729936526e-21
1.0140279467 	0.00811730008676 	1.28668162239e-21
1.01833232439 	-0.0080624083612 	2.82767192921e-22
1.02019153142 	-0.0125744353074 	5.87629981189e-22
1.02269535172 	-0.0178571054813 	2.61160402112e-22
1.02579602158 	-0.0241072541664 	-8.5317831037e-23
1.02932334389 	-0.0317788899318 	4.60696778933e-22
1.03276294875 	-0.0415761277291 	-1.85018578075e-22
1.03501450894 	-0.0540425938099 	2.97119081181e-22
1.03407864064 	-0.0702995269736 	1.29969652801e-22
1.02576895685 	-0.0907849835947 	-4.93271673896e-22
1.00260166737 	-0.111590192693 	-2.19462031979e-21
0.955164029328 	-0.12314834367 	-3.38469256332e-21
0.886051509931 	-0.095781656199 	9.83483173362e-21
0.844764205304 	-0.00978677501595 	1.67928601063e-22
0.878232070932 	0.0784517993804 	1.00184601148e-20
0.942407945804 	0.111543014726 	-9.09511281183e-21
0.989118512451 	0.106173421526 	-2.52947992531e-21
1.01388238163 	0.0897479192612 	-5.96186382341e-22
1.02510973238 	0.0721163725921 	-4.00689630798e-22
1.02858916632 	0.0569530445462 	-9.98580207471e-22
1.02853652779 	0.0446600741582 	4.87086553783e-22
1.02680246406 	0.0345581201439 	-1.07217420396e-21
1.02444591253 	0.0263430897052 	1.93442259636e-22
1.02214565982 	0.019535837101 	-9.38874383771e-22
1.02014980122 	0.0137412832457 	-1.18516493386e-21
1.0186038577 	0.00878452394247 	-7.07240353499e-23
1.02261371646 	-0.0080746685978 	6.13407473882e-24
1.0250683584 	-0.0124173740656 	1.48318976985e-22
1.02845039873 	-0.0177495048021 	-9.550043254e-23
1.03279046455 	-0.0240611140755 	5.9054423868e-25
1.03818535069 	-0.03193005673 	8.11364022423e-23
1.04438635803 	-0.0423616912019 	-3.1564583896e-23
1.05067606761 	-0.0566688257118 	1.64959294858e-23
1.05537263362 	-0.0771797108803 	-1.6907659687e-22
1.05432154682 	-0.107047282299 	3.86989486477e-23
1.03721636034 	-0.151186509174 	6.05876887165e-22
0.976188659917 	-0.206352032891 	1.16610604651e-20
0.817294025285 	-0.21942800983 	-1.99762251087e-21
0.667436642007 	-0.0140664070762 	-2.66773655075e-21
0.803098370672 	0.195683342816 	-3.90363387496e-21
0.954195546633 	0.195043691341 	1.36090487868e-20
1.01702933554 	0.150347187811 	-9.15545541647e-22
1.03882648544 	0.112002171501 	-7.09844266396e-23
1.04482769235 	0.0843033873058 	1.67202738239e-21
1.04423223569 	0.0638177145592 	6.439989862e-22
1.04083332205 	0.0485580206284 	-2.5087878003e-22
1.03652198862 	0.0367946474982 	-2.59090923072e-22
1.03228494738 	0.0276346387113 	3.73926059509e-24
1.02864251321 	0.0202762691011 	6.1936373421e-22
1.025666289 	0.0140751058188 	-6.54610936704e-22
1.02342100936 	0.00900268349839 	-6.636350791e-22
1.02680955683 	-0.00762696096713 	5.20872675343e-24
1.02980711847 	-0.0117162105846 	3.10154925284e-23
1.03399511503 	-0.0166222446294 	2.16470521456e-23
1.03963744328 	-0.0224569858161 	8.14954310841e-23
1.04696002803 	-0.0297015458727 	1.02629679558e-22
1.05631653545 	-0.0395489043578 	5.94586226467e-23
1.06787317558 	-0.0535725659995 	-4.59219385368e-22
1.08150905645 	-0.0749181733562 	-4.58296417608e-22
1.0961990006 	-0.10983040503 	7.87196249239e-22
1.10725423289 	-0.172507219691 	-1.7409475003e-21
1.09520905959 	-0.300528100042 	1.51006077479e-21
0.88423859162 	-0.60598786158 	4.35963916755e-22
0.851110055847 	0.561729908923 	1.57270467388e-21
1.0550578136 	0.292361804893 	-3.31163001599e-22
1.07758072883 	0.180784100599 	-2.20916232654e-22
1.07737052644 	0.123914906957 	-4.91858206306e-23
1.07107625576 	0.0893380372782 	3.30183230092e-22
1.06297932036 	0.0657625227699 	-1.11642187258e-22
1.05472543947 	0.0489568902151 	8.55320991251e-23
1.04713951021 	0.0364865866249 	1.37236764352e-22
1.04061958951 	0.0271397837756 	8.41857479752e-23
1.03534483023 	0.0197465845253 	-1.02949035324e-22
1.03128207719 	0.0136759846437 	2.57125652464e-23
1.02829800614 	0.00869009018454 	-1.5439377848e-23
1.03071310773 	-0.00669499610597 	1.99121100684e-23
1.03411718465 	-0.0104933731689 	-5.78803060109e-23
1.03893712416 	-0.0146154109853 	-6.08251704167e-23
1.04566717649 	-0.0194583856129 	1.66049426094e-24
1.05460716482 	-0.0253311234188 	-1.03282555097e-22
1.06677045798 	-0.0330097921855 	-7.32846572622e-24
1.08330664076 	-0.0437703039838 	-8.60240877088e-24
1.10616628119 	-0.0603112990218 	4.27453854912e-23
1.13918864719 	-0.0884385222533 	-6.81358145206e-22
1.19014526594 	-0.140366729586 	-3.0660306683e-22
1.28801946859 	-0.240944513105 	2.5682780539e-22
0.0386558416458 	0.00137277994665 	-1.66667679757e-21
1.22357262286 	0.253911826723 	-1.89763178381e-22
1.15163632886 	0.166678705743 	2.410814252e-22
1.11998318205 	0.1163306284 	5.8809179341e-22
1.09906523922 	0.0836723447572 	-1.6047763366e-22
1.08253856258 	0.0610808268921 	-1.67165272207e-24
1.06886185613 	0.0450195474833 	1.5090087038e-24
1.05763883062 	0.033295524207 	1.8250260733e-23
1.04873153549 	0.0245932728632 	-1.49993481561e-26
1.04175798501 	0.0178200866645 	-2.99994959786e-23
1.03660942105 	0.0124211955555 	-3.76933831983e-23
1.03293003796 	0.00772339314779 	3.88584467278e-23
1.03393954587 	-0.00585368773889 	-4.74130965373e-24
1.03763876986 	-0.00874105827266 	8.096991709e-23
1.04293427261 	-0.0120340609557 	3.73880088306e-23
1.05026629643 	-0.0155262619762 	1.61580410494e-23
1.06003521188 	-0.0194329547121 	1.83397819316e-22
1.07371339567 	-0.0237697128643 	2.74923908071e-22
1.09290046989 	-0.0288342589783 	-1.59460267788e-21
1.12121923902 	-0.0354886622992 	4.91138967236e-22
1.16512453191 	-0.0457217333041 	2.07366551171e-21
1.23755491953 	-0.0635485573402 	-1.26836057154e-20
1.345784661 	-0.0889585631448 	3.44154735812e-20
0.132864790894 	-0.051216127944 	1.77577721005e-21
-1.3008149103e-05 	-0.0164447681566 	-4.37833660806e-22
0.126802776305 	-0.007024581812 	6.50462833469e-23
1.25656787332 	0.130555981323 	-2.58281122988e-20
1.19600785415 	0.119797745748 	7.80248592104e-21
1.15338154166 	0.0920587702625 	7.23324955393e-22
1.12328510743 	0.0679674717888 	1.3333875444e-22
1.09981229623 	0.0497448909517 	9.45673732437e-22
1.08140599726 	0.036593123804 	-1.57585740221e-22
1.06683710837 	0.0270242489521 	-1.0285203007e-22
1.05575855592 	0.019981337921 	-5.12439065013e-24
1.04730735956 	0.0145567048558 	3.03140750348e-23
1.04111164 	0.0100979902595 	2.60180367525e-23
1.03678737719 	0.00650228153244 	1.75164419598e-23
1.03664334383 	-0.00470155965345 	2.69291333916e-23
1.04035087265 	-0.00687356010356 	-4.90051118715e-22
1.04582785578 	-0.00926714489501 	5.6783606805e-22
1.05323741592 	-0.0114017977581 	-4.60090843149e-24
1.06292698192 	-0.0132625549431 	-4.41712232652e-22
1.07609662512 	-0.0141431229326 	-4.50205874659e-22
1.0944076041 	-0.0130293844334 	1.27007101167e-21
1.12139845274 	-0.00787760412772 	4.38849661622e-21
1.16366955931 	0.00377392905135 	1.13854902979e-21
1.2377457999 	0.0247745641839 	4.36267097009e-21
1.33352487323 	0.0583060560638 	3.98281635923e-21
0.461522260155 	-0.060410850821 	-5.6998815662e-21
-0.163100909704 	-0.162358925337 	-3.45732324059e-21
0.102788228991 	-0.0745880829409 	-4.51629540622e-21
1.18659610527 	0.060413682398 	-1.71754149109e-21
1.21268624966 	0.0796406714728 	-2.44972775331e-21
1.17503840008 	0.0617922063604 	-8.6637430778e-23
1.14086592994 	0.0454529124737 	-3.50355311076e-21
1.11275045409 	0.0331633389429 	-9.99996737651e-22
1.0906693866 	0.0245540102838 	2.42855415509e-22
1.07373422501 	0.0183294162857 	2.79824981189e-22
1.0609703919 	0.0137307396385 	2.10319994436e-24
1.05146469643 	0.0102094410166 	-2.0818259963e-22
1.04452263452 	0.00708423853823 	1.47934383491e-22
1.03986809332 	0.00468955566857 	1.00039580869e-22
1.03876225141 	-0.00345182579832 	-3.63385111408e-22
1.04238761111 	-0.00506780076921 	-9.63198563628e-22
1.04768481804 	-0.00665726438962 	-6.57938001018e-22
1.05472786908 	-0.00776782329799 	9.5073766664e-23
1.06341285424 	-0.00811984740999 	-8.2992603835e-22
1.07463511117 	-0.00658869341745 	5.50467440628e-22
1.08857000853 	-0.00103785441476 	-1.37420655025e-21
1.10721748631 	0.0127738308434 	-8.99369113208e-23
1.13770539593 	0.0439701349607 	-2.95461923255e-21
1.17743637056 	0.101758040367 	-3.69435039961e-21
1.24338700804 	0.215713635596 	8.41301181625e-21
0.663812074935 	0.278065982325 	1.56040949893e-20
-0.152101829715 	0.205490319164 	6.08288380134e-22
0.116780296194 	0.106111491109 	5.49559899842e-21
1.11946393921 	0.0565408404263 	-1.03862436685e-21
1.2351159582 	0.0486179749934 	-1.85039607799e-21
1.19200254374 	0.0279981149388 	-1.51767473786e-21
1.15112628031 	0.0176444046733 	2.87763292657e-22
1.11988213181 	0.0128227684404 	1.49938568358e-21
1.09584187254 	0.00983153740946 	-5.38159967327e-22
1.07722994606 	0.00803668949511 	7.3961264189e-22
1.06377136133 	0.00647552491333 	-7.26282240422e-23
1.0538254519 	0.00521160289177 	3.07919539844e-22
1.04666488946 	0.0037729158882 	4.11810573936e-22
1.04188643256 	0.00270074576618 	3.58810258961e-23
1.04018321697 	-0.00230642683009 	1.02688789165e-21
1.0438109561 	-0.00337394631596 	8.60540239362e-22
1.04874885974 	-0.00439092523698 	-3.48045199984e-22
1.0552791126 	-0.00494514505097 	-1.40134003651e-22
1.06263836455 	-0.00470482195518 	4.5297911305e-22
1.07111056348 	-0.00253330355514 	1.67360320804e-22
1.0793810693 	0.00372928972171 	-2.17521268031e-22
1.0840528638 	0.017959087283 	6.42225770779e-22
1.08901846591 	0.0504911970914 	2.13180633871e-20
1.08138366771 	0.120076658298 	1.87919777607e-21
1.06483265198 	0.26787310855 	5.32919060504e-22
0.604920402287 	0.438847432538 	3.17614765494e-21
-0.0340437124256 	0.509264513523 	-2.50318288234e-22
0.334214103358 	0.281801389202 	1.22033228581e-21
1.1574244912 	0.0327803920381 	-1.42428140299e-21
1.26752185897 	-0.00197748620761 	2.12735722239e-21
1.19922575009 	-0.0154167628994 	2.63170041984e-20
1.15269912344 	-0.0127682726026 	4.99679540355e-22
1.12075986364 	-0.010789407312 	2.72789207511e-21
1.09517104401 	-0.00567781853525 	-2.74870831425e-22
1.07699441995 	-0.00279159901407 	-5.80833758256e-22
1.06384415212 	-0.000974401703389 	9.84516549582e-23
1.05417432205 	0.000133871773831 	2.32357879598e-22
1.04737360066 	0.000578065858369 	-3.97625689434e-22
1.04263189742 	0.000692418161157 	-2.85010947914e-22
1.04112610604 	-0.00118992731507 	-1.2572824708e-21
1.04470275376 	-0.00176050656556 	-4.96240823769e-22
1.0493631061 	-0.00240868816405 	-8.78691493133e-23
1.05551394816 	-0.00283538113761 	-3.35481790887e-22
1.06216742425 	-0.00294021268275 	2.55735207391e-22
1.0687291185 	-0.00152790825698 	-9.59311682051e-22
1.07087974204 	0.00018588940996 	-7.34723852045e-22
1.06797816773 	0.00765510803003 	-7.20310201617e-22
1.04892923565 	0.0255536957182 	1.52681164941e-21
0.999416292601 	0.0636370435741 	-5.44469357721e-23
0.887345906471 	0.169310084426 	-8.16144556868e-22
0.369934624232 	0.391147402805 	-3.98155684539e-22
0.123333060356 	0.387044142861 	-1.07680611385e-21
0.685965802261 	0.076026877674 	5.26377447415e-21
1.23691591879 	-0.109999895512 	-3.7905645103e-21
1.28024405541 	-0.0974894104268 	1.70442479127e-21
1.1872076395 	-0.0714423112128 	3.99684544599e-21
1.14300765816 	-0.0480417039327 	-9.72454656591e-22
1.1098586868 	-0.0305488349596 	1.10058917482e-21
1.08845591563 	-0.0216342218392 	8.52298415288e-22
1.07334652046 	-0.0127977624817 	-1.38832100552e-21
1.06122909513 	-0.00760494800985 	2.30075544458e-22
1.0525538362 	-0.00432227788976 	6.33068040028e-23
1.04659105521 	-0.00231279256299 	4.46342499005e-22
1.04233985405 	-0.00112362560172 	1.77707854879e-22
1.04140152903 	-0.000161105055915 	1.49134059402e-21
1.04512341946 	-8.4096658395e-05 	-2.85170144516e-21
1.04976182255 	-0.000464105696096 	1.58484720347e-21
1.05566623925 	-0.00020812696735 	6.5358549376e-24
1.06217188901 	-0.00185384576598 	1.82103470569e-21
1.06842220607 	-0.00361432619764 	-4.41809401481e-22
1.07192929151 	-0.00605499946193 	-1.01629585815e-21
1.06702698162 	-0.0124098177829 	4.77004811763e-23
1.04090287943 	-0.0205024704657 	9.17064337249e-23
0.974155711007 	-0.0351481591238 	-3.84374219971e-22
0.745616804831 	0.0282888349413 	3.19667686025e-21
0.289248150445 	0.117032042721 	3.27899501215e-23
0.389927341586 	-0.0770213253083 	-4.68872740198e-22
0.904387128792 	-0.290112870816 	1.53443112692e-22
1.217413376 	-0.28700647378 	-1.06526578221e-20
1.21206218475 	-0.190100560657 	1.23177675448e-21
1.14528346008 	-0.117344909685 	1.32674455349e-21
1.11623460375 	-0.0755919083626 	1.31738917618e-22
1.09210790689 	-0.0476923060895 	-2.38280397087e-21
1.07638891999 	-0.0297157800214 	-6.49164312661e-22
1.06513936587 	-0.0195146571048 	1.68931028149e-21
1.05620399121 	-0.0126120391187 	-1.01918199793e-24
1.04941708143 	-0.00740499292864 	-1.21835859369e-21
1.04460283373 	-0.00455788678607 	1.85648524887e-21
1.04107363166 	-0.00242009386478 	-3.91464787484e-23
1.04122924972 	0.00102805191753 	-1.08661541697e-21
1.04515054508 	0.00186764584147 	2.14623582159e-23
1.04932147288 	0.00253716883849 	2.97374054899e-21
1.05585411907 	0.00129943386946 	-1.3056699985e-21
1.06392308047 	-9.02230886017e-05 	1.7679567464e-21
1.07278951163 	-0.00277699693104 	-1.74550460699e-21
1.0810887853 	-0.011410495976 	1.87260381332e-22
1.08527067046 	-0.0265084671335 	3.94272124982e-24
1.08021605881 	-0.0661647527262 	-8.61303219179e-22
0.998697781031 	-0.132118268563 	1.19122868913e-21
0.661041391181 	-0.173816775947 	-1.2074821531e-21
0.429015615763 	-0.27188330753 	-4.67574581322e-22
0.573684981338 	-0.399113368564 	-2.92914216056e-22
0.915996356764 	-0.446665342565 	-2.43436826099e-21
1.09567460338 	-0.352455846673 	1.03638811103e-22
1.10163566927 	-0.221980631801 	-2.78215478424e-21
1.08342009127 	-0.137779696335 	2.15169777431e-21
1.07704641564 	-0.0866678368231 	2.4318720397e-23
1.06836842637 	-0.0546954353018 	3.86280656474e-22
1.06157820833 	-0.034468346805 	-2.37379388801e-21
1.05476001582 	-0.0217970388368 	1.86016019176e-21
1.04954556406 	-0.01381155924 	-3.80451979569e-22
1.04514803494 	-0.00891709958876 	-2.36722882286e-21
1.04194559611 	-0.00598750919424 	-3.88548325335e-23
1.03922871955 	-0.00317513936178 	4.02066878476e-22
1.04012054391 	0.00244970133133 	8.91307046406e-22
1.04434686648 	0.0032415146381 	-4.71403405348e-22
1.04868795088 	0.00377379274949 	-2.79336483478e-22
1.05623037386 	0.0050668076586 	3.07819826774e-22
1.06518669562 	0.00452318876413 	2.4936877725e-22
1.07913829901 	0.00390228721326 	6.23433413195e-22
1.09386078369 	-0.00515385793745 	9.92556397325e-23
1.11791053437 	-0.0186034119477 	-1.82602193025e-23
1.14979545853 	-0.0674487173573 	8.08778555303e-23
1.10199507603 	-0.131883567502 	9.73181953665e-23
0.768639697259 	-0.313317690284 	-3.54767883058e-22
0.53225862662 	-0.471149433096 	-3.96507623193e-22
0.609890619456 	-0.499355651756 	-3.88613393063e-22
0.85059242803 	-0.442567585094 	7.70084816309e-22
0.95698925906 	-0.326611131986 	8.57743065253e-22
0.99718533656 	-0.195084536163 	-2.09286118663e-24
1.02012702984 	-0.123779499376 	-7.31423796073e-23
1.03867640983 	-0.0785295324891 	9.47743397312e-24
1.04375873862 	-0.0486706893641 	1.04441519512e-22
1.04647816971 	-0.0315803810333 	5.92650575661e-22
1.04574902597 	-0.0202116326418 	1.86176132303e-22
1.04325533643 	-0.0128878359414 	9.0459070475e-23
1.04094326143 	-0.00839775419204 	-2.75977510726e-22
1.03927130464 	-0.00575108737449 	-6.58023452645e-22
1.03726243939 	-0.00323654567174 	-3.79105415026e-22
1.03872290123 	0.00354315988537 	-2.38041348676e-21
1.04189247617 	0.00487639741857 	7.79321754874e-22
1.04728606022 	0.00701315206936 	-3.28135234001e-24
1.05485433446 	0.00878220958074 	5.46677074328e-23
1.06470034229 	0.0120130548695 	-4.02765512757e-22
1.0810971231 	0.0153181603614 	-1.98299542196e-22
1.10080964378 	0.0125514740494 	8.63453563866e-22
1.13839322523 	0.0207433797264 	3.35287633721e-23
1.21835773704 	-0.00164988949395 	3.82063816507e-23
1.20514219609 	-0.0334174031393 	-2.28706416403e-22
0.984751457606 	-0.144553179852 	-2.08701554842e-21
0.671782024912 	-0.354047726449 	9.93813204057e-24
0.591440821871 	-0.426750521203 	-2.8499204797e-22
0.709603231922 	-0.361473224817 	-7.94045608242e-23
0.838296397303 	-0.218085122994 	1.00438156481e-22
0.903319904252 	-0.13137036398 	-2.27868971813e-23
0.960152092703 	-0.0753424351956 	8.19391844615e-24
1.00714215832 	-0.0491746874031 	1.52967790084e-23
1.02614652437 	-0.0309202497623 	1.20567258263e-22
1.03477730941 	-0.021069595001 	1.25815654182e-23
1.03907895344 	-0.014688087588 	-1.14467356773e-22
1.03920841721 	-0.0100015600027 	3.08261803466e-23
1.03815905354 	-0.00684862404863 	2.28990972443e-23
1.03646107558 	-0.00460732213781 	4.11201934024e-22
1.03517264734 	-0.00327854841929 	1.02493858584e-22
1.03661426916 	0.00362632848421 	-4.8580889167e-22
1.03972853161 	0.00632238361407 	-5.221399873e-22
1.04468836897 	0.00947465850361 	1.49709299409e-22
1.05065898557 	0.0131518080037 	-1.6747761392e-23
1.06023638308 	0.0192773282716 	1.52316409323e-22
1.07457985402 	0.025535949368 	4.28731916326e-22
1.09325385318 	0.036754468109 	3.69341544046e-23
1.13236755156 	0.0536351212185 	-7.36298203674e-22
1.19635463314 	0.0840536192544 	9.26694178203e-22
1.2123919125 	0.125716331514 	5.86066637659e-22
1.09278683074 	0.121370357644 	-1.05013118793e-21
0.857332485684 	0.0214030554547 	0
0.66880723977 	-0.0971632998878 	9.49954751034e-37
0.643345888784 	-0.142157032772 	1.50599425963e-25
0.729268561246 	-0.0988639989648 	3.52668589347e-22
0.845775859144 	-0.0360925220185 	-2.93706868741e-22
0.935732858595 	-0.0170267951544 	-3.0238895425e-22
0.988077630413 	-0.0122996592879 	4.1916820519e-22
1.01634089024 	-0.00787609376881 	-2.37355343212e-23
1.02894287919 	-0.0067804997924 	-1.48342906844e-22
1.0344501784 	-0.00622419346244 	4.02917482514e-23
1.03636962306 	-0.0050886374406 	4.8426432362e-23
1.03626782378 	-0.00404435864142 	7.96528140293e-23
1.03515576413 	-0.00305834195365 	-1.96358307623e-22
1.03395390933 	-0.00192320420201 	-1.89171158059e-22
1.03441250253 	0.00450872552879 	0
1.03691688921 	0.0074143278557 	0
1.0407894663 	0.0112315323426 	0
1.04536955549 	0.0163069604123 	0
1.05250274254 	0.0237396381618 	0
1.06271842925 	0.034550746729 	0
1.07500082604 	0.0515247236447 	0
1.09844101 	0.0774194746734 	0
1.13940688009 	0.126052464268 	0
1.15728557768 	0.200566787468 	0
1.08826839605 	0.257130425357 	0
0.922602213832 	0.245744433637 	0
0.749263234679 	0.188872475802 	0
0.679731032657 	0.129031049349 	0
0.718549709733 	0.102955303021 	0
0.83029349591 	0.0974474591055 	0
0.941439338022 	0.0708640159019 	0
0.997294443588 	0.0388495281943 	0
1.02289309238 	0.0185893492604 	0
1.03369611399 	0.00813251058729 	0
1.03702634205 	0.00206024626996 	0
1.03756153618 	-0.000793906391287 	0
1.03664140758 	-0.00183501022537 	0
1.03500629881 	-0.00194158126515 	0
1.03342444938 	-0.00140951214734 	0
1.03188838174 	0.00465407773993 	0
1.03355042425 	0.00751984777315 	0
1.03604632861 	0.0114864568048 	0
1.03895359821 	0.0171545291105 	0
1.04283117847 	0.025056941093 	0
1.04766840665 	0.0377484755159 	0
1.05304192898 	0.0570588313215 	0
1.06022043054 	0.0851451691954 	0
1.07063330654 	0.135615687066 	0
1.07204824307 	0.215014629367 	0
1.03374193134 	0.300580511053 	0
0.917937152194 	0.34752018406 	0
0.781471168779 	0.343740395894 	0
0.725977099945 	0.308585474374 	0
0.760912539726 	0.265788657411 	0
0.877244746399 	0.211910927378 	0
0.995418922216 	0.14257463533 	0
1.04144589164 	0.0786522847801 	0
1.04915481616 	0.0379390311793 	0
1.04703407089 	0.0185991419894 	0
1.04388906521 	0.00730659595736 	0
1.04081106415 	0.00191792422136 	0
1.03770808658 	-0.000446785107453 	0
1.0350453201 	-0.00121398485097 	0
1.03292948575 	-0.00108041267393 	0
1.02941999315 	0.00412264028156 	0
1.03034503094 	0.00661331182231 	0
1.03147950145 	0.00999288641123 	0
1.03251860493 	0.0150329024209 	0
1.03284643763 	0.022403917511 	0
1.03199287313 	0.0343028937292 	0
1.02934226343 	0.0532478650769 	0
1.0215503344 	0.0821101263483 	0
1.00718227964 	0.129456291085 	0
0.983862494859 	0.19926416763 	0
0.950086276749 	0.291507586134 	0
0.874532545148 	0.366047066585 	0
0.785675349599 	0.383672094391 	0
0.759163456841 	0.360189098811 	0
0.813134715475 	0.310721410464 	0
0.952903951772 	0.228518054248 	0
1.07676718035 	0.135688481844 	0
1.10179755193 	0.068604562197 	0
1.08233112458 	0.0338142043369 	0
1.06359368944 	0.0166425460078 	0
1.05252277835 	0.00628266735579 	0
1.04481064471 	0.0018494681322 	0
1.03928938694 	-0.000436377368037 	0
1.03533980689 	-0.00113846064419 	0
1.03265091456 	-0.00108092304701 	0
1.0272655186 	0.00295945906381 	0
1.02763880472 	0.00465900075891 	0
1.02760278614 	0.0068021959246 	0
1.02665289935 	0.00993380441774 	0
1.02341525548 	0.0149069343567 	0
1.01672402782 	0.022881959745 	0
1.00464347337 	0.0370163350804 	0
0.9837858583 	0.0604549347452 	0
0.951898581224 	0.0971249724446 	0
0.905383570399 	0.150351506825 	0
0.860197077859 	0.225581445155 	0
0.816930544581 	0.30216462039 	0
0.782228171889 	0.330647088144 	0
0.796768629158 	0.303253287389 	0
0.893240211797 	0.227250646168 	0
1.05464312383 	0.124495097915 	0
1.15470025218 	0.0496357715509 	0
1.14326392188 	0.0181676567523 	0
1.10214157096 	0.00880680583647 	0
1.07480358393 	0.00316688235471 	0
1.0585621955 	-0.000678252222812 	0
1.04753256992 	-0.00148166392146 	0
1.04058862839 	-0.00214320235075 	0
1.03559013811 	-0.0018709044435 	0
1.0324418367 	-0.0014614218172 	0
1.02598425986 	0.00135702506047 	0
1.02614429108 	0.00193881096042 	0
1.02562690693 	0.00237401091454 	0
1.02369692005 	0.00264768668018 	0
1.0186605316 	0.00293880850339 	0
1.00852239745 	0.00310038575294 	0
0.990002557685 	0.00482949923554 	0
0.9606424639 	0.00970628235503 	0
0.916307355055 	0.0226690136807 	0
0.853124016678 	0.0480707043463 	0
0.798668276546 	0.0858917375989 	0
0.774168687144 	0.125492337989 	0
0.790691552112 	0.138664724419 	0
0.865996704 	0.104145982975 	0
0.998018075655 	0.0273480628949 	0
1.1364453058 	-0.0393270023681 	0
1.18351908013 	-0.0509396647355 	0
1.14395704114 	-0.034614888332 	0
1.09998962859 	-0.0205823406273 	0
1.07481211095 	-0.013801238262 	0
1.05837195201 	-0.0101318468221 	0
1.04698252921 	-0.00694219516026 	0
1.04013534503 	-0.00518320392498 	0
1.03492396383 	-0.00342307462853 	0
1.03171141801 	-0.00224556761006 	0
1.02585087875 	-8.26453768566e-05 	0
1.02639932215 	-0.000582129492091 	0
1.02657830885 	-0.00192008717367 	0
1.02581940946 	-0.00469613528693 	0
1.0225582233 	-0.00988991420795 	0
1.01473050878 	-0.0192391250875 	0
0.997680404196 	-0.0345019296681 	0
0.966063503195 	-0.0562845849448 	0
0.912324292506 	-0.0742940116413 	0
0.839723234935 	-0.0819961546382 	0
0.785121002514 	-0.08369792496 	0
0.771310286923 	-0.0920372992467 	0
0.813732167838 	-0.107622706262 	0
0.920549299769 	-0.131984359187 	0
1.04596270893 	-0.158526336435 	0
1.13616784372 	-0.151351037399 	0
1.15096553393 	-0.108590521667 	0
1.11442187544 	-0.0666919807961 	0
1.08289525206 	-0.0413201988986 	0
1.06517694271 	-0.0268659830445 	0
1.05221493112 	-0.0178445401599 	0
1.0428754097 	-0.0118243151859 	0
1.03724079932 	-0.00803976462555 	0
1.03279577856 	-0.00507923662137 	0
1.03008862154 	-0.003122277005 	0
1.02657204163 	-0.000885176623797 	0
1.02808825465 	-0.00202957991595 	0
1.02996956384 	-0.00457494237312 	0
1.03218529165 	-0.00937864782413 	0
1.03390888389 	-0.0179474996548 	0
1.03434632279 	-0.0333785094146 	0
1.02807752143 	-0.0600859588818 	0
1.00125903755 	-0.102705743026 	0
0.941270898456 	-0.148218103739 	0
0.861233851407 	-0.182970172606 	0
0.80687262531 	-0.210849164889 	0
0.795676358415 	-0.239675984085 	0
0.831627195051 	-0.263006376528 	0
0.922035341252 	-0.268739065692 	0
1.01937703089 	-0.246739772045 	0
1.08145618244 	-0.194908361796 	0
1.09364222666 	-0.132111591278 	0
1.07491622867 	-0.0828623765401 	0
1.0599857994 	-0.0529844637756 	0
1.05077236955 	-0.034132946399 	0
1.04282134977 	-0.0218939765116 	0
1.03678136927 	-0.0142174646365 	0
1.03296135964 	-0.00930765712739 	0
1.02981696138 	-0.00584089835244 	0
1.02789416056 	-0.00354182859319 	0
1.02760095777 	-0.00104762348904 	0
1.03026472158 	-0.00231460042697 	0
1.03409949277 	-0.00495297961109 	0
1.0395558242 	-0.00973341935718 	0
1.04709503859 	-0.0177300538928 	0
1.05775101125 	-0.0324158500823 	0
1.06818548267 	-0.0572903969529 	0
1.05446848692 	-0.103337719949 	0
0.9925505884 	-0.166449886968 	0
0.902375552817 	-0.222375811505 	0
0.84110449825 	-0.264953075739 	0
0.823876282708 	-0.29689532274 	0
0.841594750093 	-0.31660172992 	0
0.899524000504 	-0.311916887135 	0
0.964247605686 	-0.267799485725 	0
1.01243858348 	-0.2007870767 	0
1.03394755159 	-0.136402476331 	0
1.03371492005 	-0.087917356474 	0
1.03392993825 	-0.0563747319124 	0
1.0338910783 	-0.0351105126613 	0
1.03208066144 	-0.0216817489854 	0
1.03016390425 	-0.0135594066657 	0
1.02858780586 	-0.00854788955879 	0
1.0269161741 	-0.00526602106485 	0
1.02575807809 	-0.00314416533754 	0
1.02846857746 	-0.000694527260856 	0
1.03196521368 	-0.0015239803217 	0
1.03725200484 	-0.00302988265024 	0
1.04490750387 	-0.00583145210017 	0
1.05661383959 	-0.0100367459269 	0
1.07432338494 	-0.0182494671388 	0
1.09901850679 	-0.0306785336029 	0
1.10928121305 	-0.0580694809025 	0
1.06143834049 	-0.11564042401 	0
0.960835640347 	-0.188470174143 	0
0.879493804479 	-0.250637633221 	0
0.845887724867 	-0.287203490708 	0
0.84390164475 	-0.301746060911 	0
0.868476480238 	-0.285084491431 	0
0.902419177371 	-0.23212056845 	0
0.944422171362 	-0.168792775216 	0
0.979228057324 	-0.112525731464 	0
0.994894584866 	-0.0720543594094 	0
1.00723179867 	-0.0451876422852 	0
1.01647269708 	-0.0266682223708 	0
1.02153372102 	-0.0158412170541 	0
1.02400744399 	-0.00954002333768 	0
1.02481238596 	-0.00585477070995 	0
1.02458391625 	-0.00350782100727 	0
1.02412100141 	-0.00205500118361 	0
1.02881725122 	0.000197194345215 	0
1.03255588797 	0.000301372784137 	0
1.03840823143 	0.000555883278741 	0
1.04673711345 	0.000549162833039 	0
1.05982036745 	0.00106392799347 	0
1.07916164489 	0.00104468381401 	0
1.1082564245 	0.00287257740126 	0
1.13872847111 	0.00374639814016 	0
1.12246527937 	-0.0162994839122 	0
1.03845772072 	-0.0690325826774 	0
0.941403023915 	-0.136951090812 	0
0.874767153258 	-0.180381000247 	0
0.839597959952 	-0.190444630237 	0
0.832173175958 	-0.169369827874 	0
0.848368374473 	-0.128775005178 	0
0.890584868372 	-0.0880765871916 	0
0.937155810954 	-0.0506998291481 	0
0.966831318502 	-0.0270980108815 	0
0.988238058709 	-0.0145243964799 	0
1.00455863759 	-0.00713773072353 	0
1.0148851585 	-0.00402243702803 	0
1.02028864073 	-0.00243870430625 	0
1.02260001766 	-0.00163459481348 	0
1.02325621984 	-0.00102634425949 	0
1.02323262149 	-0.000663517620221 	0
1.02835295374 	0.00146365890211 	0
1.03180042816 	0.00256925299861 	0
1.03729601071 	0.00443218222277 	0
1.04488241345 	0.00699506834518 	0
1.0567708251 	0.0115044363278 	0
1.07348630805 	0.0183162580466 	0
1.09754252031 	0.0304283786027 	0
1.12886517442 	0.0517772243498 	0
1.13485534927 	0.0731139931649 	0
1.08585194847 	0.0703725831427 	0
0.997523308829 	0.0395429033656 	0
0.905738613051 	0.0140549497569 	0
0.839743269632 	0.00745848817079 	0
0.813320920863 	0.0107259576832 	0
0.823777775083 	0.0167099744227 	0
0.865124623149 	0.0246693928158 	0
0.917902070914 	0.0349728832187 	0
0.958669975685 	0.0358322978135 	0
0.986668850492 	0.0274525376786 	0
1.00570850478 	0.0177740991016 	0
1.01650708082 	0.0103941393463 	0
1.0213869592 	0.00584351712346 	0
1.02315828778 	0.00310788040142 	0
1.02350305406 	0.00160653964965 	0
1.02330623212 	0.000746408901839 	0
1.02700995876 	0.00244152714524 	0
1.02975265037 	0.00422213024409 	0
1.03409146888 	0.00719836626219 	0
1.03984298965 	0.0116953245092 	0
1.04869750939 	0.0191911855663 	0
1.06052180109 	0.0310275243545 	0
1.07520372694 	0.0496554929589 	0
1.09448871139 	0.0808828437436 	0
1.10384114262 	0.122431567927 	0
1.07494802672 	0.155819742801 	0
1.00197113879 	0.171223432308 	0
0.912796957732 	0.177721964489 	0
0.846771012946 	0.175012260469 	0
0.823018779359 	0.161175946835 	0
0.832449557314 	0.142888629854 	0
0.86995555191 	0.12648269131 	0
0.925452492374 	0.111860200751 	0
0.974131672076 	0.0902146351457 	0
1.0058949707 	0.0612463129489 	0
1.02183749676 	0.0366179522264 	0
1.02696033782 	0.02124828945 	0
1.02760848962 	0.0121433896836 	0
1.02674086789 	0.00678342620516 	0
1.02554268198 	0.00366510754187 	0
1.02444596874 	0.00187610711408 	0
1.02519285688 	0.00257850281011 	0
1.02696767944 	0.00457651846316 	0
1.02961084739 	0.00799801931997 	0
1.03272815041 	0.0134257208152 	0
1.03720708476 	0.0225704584395 	0
1.0427005938 	0.0373780297617 	0
1.04738750227 	0.0600660859101 	0
1.05291989272 	0.0939747759491 	0
1.05645062612 	0.139332488416 	0
1.03294533172 	0.189752360853 	0
0.972026176619 	0.229414058642 	0
0.901152400141 	0.251393757091 	0
0.855050018634 	0.252156332067 	0
0.84445215159 	0.236762350097 	0
0.857488727138 	0.213616309756 	0
0.89569790117 	0.184583468332 	0
0.954754051574 	0.152897622002 	0
1.00948707468 	0.112399570155 	0