1.01415042637 	-0.00814895752118 	-1.9989958582e-21
1.01536111469 	-0.012759611786 	-1.51791011957e-21
1.01678388759 	-0.0179276115726 	5.55586701839e-22
1.01839710645 	-0.0240687429152 	-1.62744507973e-24
1.01981556541 	-0.0312660128858 	-6.14172924671e-22
1.02050939379 	-0.0399079365504 	-3.0242110667e-22
1.01942984184 	-0.0497383943369 	-3.44401436163e-22
1.01457071193 	-0.0593130493215 	-1.68501691924e-21
1.00440747811 	-0.0705933435004 	2.365199321e-20
0.984589155164 	-0.0757317797659 	1.71918010338e-21
0.956676816236 	-0.0692162128092 	3.94348480807e-23
0.928377701022 	-0.0429280867756 	2.05382945188e-21
0.916431216558 	0.00136226431212 	-2.95652125179e-24
0.931680490653 	0.0445989050007 	2.43038580918e-22
0.961709914823 	0.0684524621446 	-1.43566918614e-21
0.989512225248 	0.0728108753253 	1.64095019576e-21
1.00810047515 	0.0663866971893 	1.53060065807e-20
1.017047368 	0.0549750321826 	-1.1577368304e-21
1.02071180655 	0.0457785388879 	-1.07885880114e-21
1.02108745533 	0.0367399426009 	2.2093414187e-22
1.0199397875 	0.0289203246718 	4.32866728441e-22
1.01826683192 	0.0223774672059 	1.22429759376e-23
1.01654363038 	0.0168122061374 	-2.3689817391e-22
1.01509153435 	0.0120306136487 	4.8726565445e-22
1.01389902515 	0.0076950967908 	4.87920828584e-22
1.01870588977 	-0.00864616429791 	7.06280301401e-22
1.02047266056 	-0.0135435146985 	1.40633458673e-21
1.02279033664 	-0.0193360698887 	9.05394427065e-22
1.02553531722 	-0.0262611902114 	-1.82668057106e-22
1.02846887479 	-0.0347161106922 	9.09467149859e-22
1.03088055818 	-0.0453384043842 	-3.99326206859e-22
1.03160850078 	-0.0584508500137 	7.14703820646e-22
1.02867810535 	-0.0748557637906 	2.29062639269e-22
1.01756264114 	-0.0940642107011 	-7.20971368103e-22
0.992331253607 	-0.111992765375 	-3.04206740202e-21
0.944525003132 	-0.118537355697 	-4.16600020322e-21
0.878891207523 	-0.0855758218978 	1.03849944714e-20
0.84486240736 	0.00299494657542 	1.6701396429e-22
0.885627425043 	0.0885287593606 	9.31705396939e-21
0.953196286932 	0.115979767824 	-7.46314872159e-21
0.999451186284 	0.105586984551 	-1.67292085381e-21
1.02205662167 	0.0862871343391 	-3.55197350189e-22
1.0304648162 	0.0674279023851 	-1.98596636648e-22
1.03193268781 	0.0524505984854 	-3.14045712787e-22
1.03034082807 	0.0408294115428 	1.7320464195e-22
1.02758018972 	0.0315732323044 	-4.44494023176e-22
1.02463611472 	0.0241613505465 	7.15531393463e-23
1.0219892168 	0.0180347065931 	-1.43885524511e-22
1.0198139312 	0.0127621781823 	-3.75525839577e-22
1.01818032129 	0.00819056754696 	-1.06866901952e-22
1.02336971373 	-0.00870732560821 	1.4275475176e-23
1.02588439773 	-0.0135220792264 	6.59796255654e-22
1.02924850582 	-0.0195700952592 	-6.16994216914e-22
1.03344557915 	-0.026851290179 	-3.38754178862e-24
1.03846057517 	-0.0360147159445 	2.76604643082e-22
1.04375384275 	-0.0480708695813 	2.66488797757e-22
1.04828397802 	-0.0641047876427 	-5.71199354833e-22
1.04995583527 	-0.0859185738746 	-1.46256261244e-21
1.04453346989 	-0.115633585701 	-1.50700238796e-22
1.02231879314 	-0.156527392765 	1.18276651603e-21
0.957256771416 	-0.203119240109 	1.65778810715e-20
0.802115041864 	-0.20329281721 	-2.09018694445e-21
0.667672540608 	0.00935563304209 	-2.65192683662e-21
0.81863355746 	0.211514336266 	-3.56627192936e-21
0.973282369099 	0.197959703071 	8.99718604349e-21
1.03197917481 	0.144735427616 	-3.83690145027e-22
1.04857919326 	0.103186012981 	1.72116556652e-23
1.05015081327 	0.0753842512502 	-6.08849136074e-23
1.0465088094 	0.0562568089037 	-1.27122761306e-22
1.04136353462 	0.042758119822 	7.40094172194e-23
1.03615405205 	0.0326495503112 	-4.31560360861e-23
1.03154783472 	0.0247995354295 	-1.39373785117e-24
1.0277723417 	0.0184166696907 	-4.90747361541e-24
1.02479371099 	0.0129394795578 	-5.11854856187e-23
1.02260452428 	0.0083574656075 	-8.53534252235e-23
1.02798743007 	-0.00816644374684 	6.17353262203e-23
1.03122626801 	-0.0127499503193 	-2.21459722758e-23
1.03568772927 	-0.0184449820558 	1.05906951045e-22
1.04159269163 	-0.0254491158162 	-8.56349837815e-23
1.04901569426 	-0.0344132852288 	-1.1965154735e-22
1.05794036117 	-0.0467365424962 	-9.12016817922e-23
1.06792970197 	-0.063947101457 	8.91013354825e-23
1.0780068821 	-0.0887657566293 	-2.58280980829e-22
1.08599549578 	-0.126116248393 	2.59986562553e-23
1.08635221875 	-0.187144942333 	-3.31197709186e-22
1.06089364406 	-0.303899544838 	-6.23754500207e-23
0.844330448871 	-0.577868512014 	-2.45243850409e-21
0.891493223311 	0.589018841549 	2.24310720165e-22
1.08940608378 	0.288496730221 	-2.0560638443e-21
1.09846074527 	0.165776274988 	-2.25357324928e-21
1.08744211662 	0.107325763567 	-6.67113159289e-22
1.07442180028 	0.0752761411509 	9.07238190964e-22
1.06274786757 	0.0552576618176 	4.83832538614e-22
1.05295728518 	0.0416912124844 	-8.39610446908e-23
1.04496658295 	0.031725100777 	-1.48270266666e-22
1.03857190517 	0.0241145274455 	-1.04369025904e-22
1.03357160588 	0.0178978924526 	-8.03980965111e-24
1.0297897638 	0.0126119349423 	-4.10212722701e-23
1.02705544623 	0.00813417788536 	7.49305872159e-24
1.03223086913 	-0.00699456319941 	-3.6347134991e-23
1.03609311143 	-0.0111655717443 	3.66605330464e-23
1.04155497547 	-0.0159406298691 	2.78808180664e-23
1.04911027232 	-0.0219391138264 	2.42629381808e-26
1.05894728412 	-0.0297197944963 	-2.24609205224e-23
1.07174695312 	-0.040569899597 	-2.33425784007e-24
1.08789831677 	-0.0561678571967 	-4.3108635407e-24
1.10784040762 	-0.0793713743874 	2.17856356043e-23
1.13271544977 	-0.115165348818 	-3.93417666726e-22
1.16677883003 	-0.172237843924 	-1.82946809586e-22
1.23607558809 	-0.268283574356 	1.81105643603e-22
0.0450150192976 	0.00143825799131 	-2.15636738431e-21
1.27540538809 	0.226313766755 	-2.76451949328e-22
1.17499632239 	0.134365344616 	3.90101683534e-22
1.12622074603 	0.0892053018195 	1.10062756195e-21
1.09711950284 	0.0643917787029 	-3.3338611352e-22
1.07768756003 	0.0486035780212 	-4.03842952766e-24
1.06370089113 	0.0374400031947 	9.05245786143e-24
1.05317126778 	0.0289016780502 	1.08537633969e-22
1.04519139287 	0.0221222274435 	-3.47092322297e-25
1.03906116406 	0.0165068724009 	7.71340406335e-23
1.03455738836 	0.0117560896975 	7.52192605868e-23
1.03133784438 	0.00742223761519 	-3.50921543075e-23
1.0355802648 	-0.00571874729346 	1.62027577855e-24
1.03994651256 	-0.00865425109766 	-2.52444738621e-23
1.04625808628 	-0.012255446388 	-2.86812481701e-23
1.05504435602 	-0.0165218263858 	8.22418135006e-24
1.06681280939 	-0.0220070684074 	8.53361962079e-23
1.08290786888 	-0.0296372974561 	1.73691658425e-22
1.10433928521 	-0.040751963542 	-1.02395442222e-21
1.13295008794 	-0.0576847821081 	4.34583714134e-22
1.17112686152 	-0.0836947168767 	1.41474930673e-21
1.2231739047 	-0.121255912814 	-8.74510552529e-21
1.28010842573 	-0.153841216932 	2.33464178674e-20
0.074256051487 	-0.0177742916131 	1.21103084705e-21
-0.000695419813516 	0.0115851146062 	-4.36224940499e-22
0.196769275158 	0.0318173266647 	-5.93012512186e-23
1.3226875262 	0.0656125441515 	-3.84378523373e-20
1.21043865844 	0.0612375239581 	1.17024510995e-20
1.14687583046 	0.053533967031 	1.0790858653e-21
1.11105141907 	0.0456071737099 	3.92764554581e-22
1.08802114967 	0.0379041352485 	1.59703186274e-21
1.07199328244 	0.0308220578846 	-2.78038070698e-22
1.05993733582 	0.0245196350802 	-2.53435529288e-22
1.0508875318 	0.0190334634034 	-1.1411190846e-23
1.04391304351 	0.0143689610623 	-5.22782075105e-23
1.03874436271 	0.0102074548041 	-1.04691791869e-22
1.03508560972 	0.00666172201872 	-2.00344064122e-22
1.03811091894 	-0.00392934951319 	-1.2213945477e-23
1.0425664701 	-0.00567055603476 	-1.471665237e-22
1.04932365551 	-0.00782661058471 	2.15506696414e-22
1.05868818382 	-0.00991732644597 	-2.06703820283e-24
1.07156149764 	-0.0123594287745 	-2.95357584296e-22
1.08937400645 	-0.0154008838103 	-3.22607354622e-22
1.11397929956 	-0.0197304815867 	9.72170510653e-22
1.14814473102 	-0.0267948397269 	3.61599443835e-21
1.19511795394 	-0.0391774019923 	8.60104574891e-22
1.25801350799 	-0.0629258588693 	3.35995326809e-21
1.25977501425 	-0.0824372225261 	2.21300194139e-21
0.187702724226 	-0.118961339068 	-3.12044085954e-21
-0.198703106322 	-0.129647654627 	-3.30989708317e-21
0.439139782855 	-0.113571588692 	-8.50888465061e-21
1.26355934154 	-0.0792402284679 	-3.123112911e-21
1.19200115187 	-0.010370515644 	-3.41931275474e-21
1.14238084889 	0.0180623185171 	-1.30536663856e-22
1.1132227706 	0.0266738751088 	-4.50226211598e-21
1.09276683119 	0.0267725588591 	-1.40505069092e-21
1.07719758512 	0.0235131970777 	3.67859772937e-22
1.06502237291 	0.0193686659855 	4.63457276237e-22
1.05544907842 	0.0152653443763 	5.56348785953e-24
1.04790956794 	0.011671374942 	-6.53656924798e-22
1.04223800291 	0.00824659386462 	5.85948469027e-22
1.03834526291 	0.00544041137441 	5.26050822658e-22
1.0396727508 	-0.00212491169066 	-1.35862058104e-22
1.04397512216 	-0.00272346096331 	-4.42289486066e-22
1.05052762011 	-0.00327774327539 	-3.01551270974e-22
1.05964937541 	-0.00313960792202 	6.27762415046e-23
1.07223508925 	-0.00219425485757 	-6.62884843617e-22
1.08995305552 	3.46991368164e-05 	4.84507558792e-22
1.11458512223 	0.00363892606928 	-1.22411489936e-21
1.14927694956 	0.0094856724489 	-9.51751005372e-23
1.20421336353 	0.0146091013278 	-2.95262890969e-21
1.28049217164 	0.0151463023173 	-3.56333567603e-21
1.26999156103 	0.00161478940743 	7.24179662803e-21
0.416797698776 	-0.205197012321 	9.47968625509e-21
-0.180301357503 	-0.412192018415 	5.40363775286e-22
0.401738422306 	-0.349827769471 	9.67542802189e-21
1.11188140211 	-0.161340399516 	-1.89000250446e-21
1.12912713433 	-0.0425755056092 	-2.1661901029e-21
1.12206461015 	-0.00137961808562 	-1.61641267799e-21
1.10772601752 	0.0152373004078 	2.79971900926e-22
1.09357245077 	0.018215192043 	1.78053772052e-21
1.08050989758 	0.0168202448316 	-6.54213485198e-22
1.06843696384 	0.0140896169329 	1.01886586128e-21
1.05884554452 	0.01112909275 	-1.22693354854e-22
1.05096062825 	0.008592469296 	7.79286068416e-22
1.04502452586 	0.00609451109554 	9.84790545666e-22
1.04092614828 	0.00402189958969 	-3.1414410026e-23
1.04012333981 	-0.000571643396955 	4.29600450227e-22
1.04418397357 	-0.000215573183944 	4.31620921183e-22
1.04993288531 	0.000707052453469 	-2.3639377569e-22
1.05802664502 	0.00276485165095 	-8.79840825856e-23
1.06898015712 	0.00682575024055 	3.08122649784e-22
1.08415390956 	0.0136057587013 	1.59867334014e-22
1.10611092851 	0.0260987676938 	-2.39886865542e-22
1.13464047216 	0.0416810916733 	8.21471247586e-22
1.1829719332 	0.0713043173928 	3.07588680915e-20
1.26648343004 	0.112536987863 	3.00600460293e-21
1.28208068212 	0.158643194492 	1.28665698612e-21
0.721812738862 	0.0223870146918 	6.09459924556e-21
-0.00457424992893 	-0.258511766087 	-4.61521729988e-22
0.178065696522 	-0.316599136538 	1.43016730422e-21
0.935939956443 	-0.0994733953011 	-4.17938456267e-22
1.07496235333 	-0.0101367043323 	9.99565380234e-22
1.10135225558 	0.0091318643253 	1.61424289204e-20
1.1020992955 	0.0137340663455 	3.67530012137e-22
1.09451440568 	0.0126344717633 	2.49655549808e-21
1.08242007483 	0.0108841099029 	-3.09561682689e-22
1.07085955433 	0.00874580269734 	-8.51649637118e-22
1.0611739128 	0.00671199922936 	1.75025945794e-22
1.05301419422 	0.00521804977303 	3.82882859693e-22
1.04698529957 	0.00373541100986 	-8.73431141601e-22
1.04264695304 	0.00241868440594 	-7.63135054899e-22
1.0398065489 	0.000669186648223 	-6.21359449632e-22
1.04329038659 	0.00168225649792 	-2.63048362129e-22
1.04794039655 	0.00351827496528 	-4.89852752904e-23
1.0544254123 	0.00685025224601 	-2.44018048841e-22
1.06296561143 	0.0131116407976 	2.74994171686e-22
1.07373093657 	0.0235578713674 	-9.01426467582e-22
1.08610843054 	0.0384792688206 	-8.46964120459e-22
1.10582077654 	0.0669476056815 	-1.26932752318e-21
1.13259699886 	0.113015207501 	4.01126251879e-21
1.17978067233 	0.193618656714 	6.91978958515e-22
1.20981109812 	0.31894421803 	-7.84007863268e-21
0.88484466574 	0.371214621257 	-6.21727556081e-21
0.263397419048 	0.214091169416 	-1.0942918184e-21
0.160027917461 	0.0139682913351 	-8.10147008702e-22
0.804083737444 	0.0337431326816 	4.71528780629e-22
1.07194023162 	0.0605829572758 	-8.01963080768e-23
1.10707346583 	0.029706572157 	1.14252484342e-21
1.10756924505 	0.01581410649 	-4.93669515613e-22
1.09684034648 	0.0089600275726 	1.05521110569e-21
1.08443826553 	0.00321089979019 	9.96391592557e-22
1.07294877992 	0.00292018057172 	-1.58643998297e-21
1.0624647575 	0.00193844486755 	3.54210563706e-22
1.05397498856 	0.00158945599905 	1.19245547622e-22
1.04792409636 	0.00102168202328 	9.44531388913e-22
1.04354723452 	0.000632028676675 	4.35331698012e-22
1.03897310517 	0.00133912626454 	7.43848500608e-22
1.04171308314 	0.00275255239157 	-1.64554915554e-21
1.04520884135 	0.00493209734553 	1.03572903121e-21
1.04989160409 	0.00862893454796 	5.58802029076e-24
1.05454023654 	0.0147245374725 	1.77134736133e-21
1.05916860229 	0.0243255707823 	-4.30153112655e-22
1.06475294083 	0.0421936242214 	-1.65434498238e-21
1.06759091729 	0.0722050423629 	8.56970153366e-23
1.06781518357 	0.122808910668 	1.1166840797e-21
1.06479926128 	0.207972964727 	9.64424174932e-22
1.06753088604 	0.356229276184 	-6.14526126459e-21
0.860058245294 	0.47173162277 	8.1848940647e-23
0.416761034156 	0.485980547876 	-3.45363718074e-22
0.322921698695 	0.370155803517 	7.10234609023e-23
0.811882274834 	0.175766307031 	5.6937216443e-22
1.13181249283 	0.101095895792 	-2.7316699391e-22
1.14605686111 	0.0338559512978 	4.54386132919e-22
1.12178280171 	0.0107182358238 	1.03824459399e-22
1.10368935433 	-0.000859995098149 	-1.87987704214e-21
1.08612086988 	-0.0025499670291 	-7.35026841324e-22
1.07305428943 	-0.00374340127295 	1.93742793962e-21
1.06210228508 	-0.0040037590475 	-1.52728637898e-24
1.05375450196 	-0.00231546820322 	-2.07290968604e-21
1.04787255503 	-0.00190238894851 	3.55997436407e-21
1.04343063127 	-0.000901520868504 	-1.23093988928e-22
1.03794619848 	0.00158447410566 	-5.57358512575e-22
1.04020303827 	0.00280238238157 	-1.65351223412e-23
1.04260925763 	0.00472798166849 	1.86248201187e-21
1.04500042949 	0.00725851219462 	-9.70040314253e-22
1.04682586416 	0.0119111025806 	1.51846225186e-21
1.04801705779 	0.0198630635936 	-1.6900008466e-21
1.04324943511 	0.0336708767639 	1.87330109808e-22
1.03344933559 	0.0561369089519 	-1.03864635204e-23
1.00500688137 	0.0975399950195 	7.53505034781e-22
0.960719102211 	0.164519672534 	-9.5837441532e-22
0.905043586798 	0.283487352289 	1.11544745509e-21
0.735771720427 	0.421854803881 	1.02585316322e-21
0.437440651377 	0.53080000726 	-2.18696735666e-22
0.504540678877 	0.437228146754 	-1.64143634645e-21
0.974904082534 	0.152867137641 	2.06051310286e-22
1.2191189247 	0.0475475033307 	-2.12555500649e-21
1.19383204625 	-0.000733717785756 	1.76370134373e-21
1.13436093094 	-0.0136074731072 	1.49645798328e-23
1.10813158901 	-0.0161025066589 	4.21305794682e-22
1.08532518479 	-0.0142117185444 	-2.87367155715e-21
1.07133363363 	-0.0109445415492 	2.45310518847e-21
1.05984641117 	-0.0080443206721 	-3.99719498964e-22
1.05149283137 	-0.00680279866046 	-4.13916044784e-21
1.04680380882 	-0.00470459671338 	-1.03606822951e-22
1.04243312264 	-0.00251232664768 	8.39657203958e-22
1.03690779132 	0.00172146088424 	4.02040590399e-22
1.03887325768 	0.00265692240998 	-2.29291077151e-22
1.0404688344 	0.00335764977838 	-1.63744420316e-22
1.04252622049 	0.0048382741572 	1.22757407557e-22
1.04344711065 	0.00708878793018 	1.37132503543e-22
1.04069035748 	0.0103607876693 	3.73886653016e-22
1.03172222204 	0.0147041544821 	9.35037574631e-23
1.01228703892 	0.0241242623683 	1.14513327282e-22
0.965088349513 	0.0431897343582 	-2.74739816564e-23
0.898663167125 	0.0773857795555 	-1.26899182521e-22
0.775013990711 	0.152377813632 	1.7854992777e-22
0.566098836381 	0.312054817424 	1.31011678263e-22
0.504773369852 	0.284491788726 	-6.81932075971e-22
0.776678368118 	0.0820630760335 	2.36344144293e-21
1.13646171429 	-0.0842016760435 	2.65370876911e-21
1.24640200752 	-0.0883911539525 	2.8231616631e-22
1.19641927289 	-0.0650749870917 	-6.82639868852e-23
1.1288177007 	-0.0493721914069 	-1.4629501968e-22
1.1020568788 	-0.0348617763972 	1.2097057842e-22
1.08065288861 	-0.0269814697269 	9.64918884964e-22
1.06632749525 	-0.0183663389969 	3.85102945824e-22
1.05615412165 	-0.0132623549417 	3.03309522892e-22
1.04870717409 	-0.00883381558136 	-4.91016697868e-22
1.04455028677 	-0.00641288993644 	-1.34208662706e-21
1.04038019056 	-0.00400606491926 	-9.15135418102e-22
1.03603125307 	0.00170195006488 	-9.00110034241e-22
1.03771023989 	0.00202609143307 	2.90799304642e-22
1.04032678903 	0.00229627597568 	2.03809323189e-23
1.04233360788 	0.00229529837838 	3.18197112618e-23
1.04332191536 	0.00140603784235 	2.37937912613e-23
1.04221608384 	-0.00157712352058 	2.39134011082e-22
1.03576614545 	-0.00852314121061 	-3.0670233973e-22
1.01539462174 	-0.0176640541006 	9.84668260936e-24
0.965319071159 	-0.0390800053547 	-3.67328253712e-23
0.852826035852 	-0.0529097146654 	1.51965161232e-23
0.66675202408 	-3.08762790785e-05 	5.87692496341e-22
0.577827360355 	-0.00289048842541 	7.9934372173e-25
0.662307372442 	-0.113201873917 	-4.97505076068e-22
0.911630711481 	-0.236059102332 	1.6733272197e-21
1.12981357054 	-0.258772418453 	5.77562009589e-22
1.19931986597 	-0.201298102844 	6.89763136922e-24
1.14977651707 	-0.120300970908 	3.59809902356e-23
1.10142844881 	-0.0799558784548 	4.8491386126e-23
1.0842226132 	-0.0527737877479 	1.34227261668e-21
1.06963320888 	-0.0359690390865 	-4.08383366027e-22
1.05815874109 	-0.0240896703123 	-5.72333369024e-22
1.05108330265 	-0.0164636221993 	7.40540280228e-23
1.0448771685 	-0.01132383378 	-1.26661598239e-23
1.0405782899 	-0.00750040492907 	1.15116321706e-21
1.03776996938 	-0.00499475580444 	2.14646061029e-22
1.03550343355 	0.00101427347815 	-1.41343906208e-22
1.03806232108 	0.00163763880695 	-1.487448274e-22
1.04130117948 	0.0014226778434 	7.28606115868e-23
1.04452586884 	2.15897350828e-05 	5.78891651742e-23
1.04779587558 	-0.00369706022708 	2.67939711243e-23
1.05022050332 	-0.0114445808835 	-2.50187747439e-22
1.04985372005 	-0.0245696826124 	-3.54179562034e-23
1.04363258013 	-0.0572453066467 	6.15357953916e-22
1.00345083185 	-0.111175074579 	-4.50222826754e-22
0.870275262645 	-0.178098255987 	-4.24434813928e-22
0.715467360711 	-0.244885743153 	5.24301132274e-22
0.664294778368 	-0.308841599936 	0
0.751940640676 	-0.358998384404 	-2.08920550681e-35
0.926153916206 	-0.36813561476 	-3.31208565148e-24
1.05754738091 	-0.317380257801 	-7.03196150309e-22
1.09432407573 	-0.222627651214 	4.30237465542e-22
1.08089728432 	-0.138131161186 	6.1331793422e-22
1.066260374 	-0.0872619657202 	-6.87943666161e-22
1.05926285328 	-0.0584028027102 	4.59592700869e-23
1.05306977722 	-0.0388111773406 	5.5803012074e-22
1.04758680469 	-0.0259442187661 	2.08027955376e-22
1.0433938205 	-0.0178861288518 	-1.9839495334e-23
1.03997082646 	-0.0119171059494 	2.12518661678e-22
1.03709863266 	-0.00771198533491 	-7.40178996809e-22
1.03499685241 	-0.00455537162006 	-6.9241260769e-22
1.03499315726 	0.00130098533401 	0
1.03793144685 	0.0018420415401 	0
1.04196489935 	0.00164169132073 	0
1.04737698399 	0.000192832242589 	0
1.05451312006 	-0.00332915911813 	0
1.06373499218 	-0.0124130384313 	0
1.07833018326 	-0.0272245381932 	0
1.09770843005 	-0.0627689547728 	0
1.08258565178 	-0.128775184115 	0
0.952167541352 	-0.228921500998 	0
0.779226509724 	-0.330410044237 	0
0.704258453786 	-0.393165243233 	0
0.751703242285 	-0.416943010257 	0
0.879988068511 	-0.388733234568 	0
0.976175936518 	-0.305426967985 	0
1.00652299408 	-0.206141884928 	0
1.02052214654 	-0.130209804135 	0
1.03197799906 	-0.0834502709577 	0
1.03763865035 	-0.0552629434855 	0
1.03820691445 	-0.0362546010464 	0
1.0381052499 	-0.0241090341516 	0
1.03707128107 	-0.0165144124144 	0
1.03542080203 	-0.0110217045543 	0
1.03394980739 	-0.00723897695638 	0
1.03264934227 	-0.0044115055883 	0
1.03430770514 	0.00193492056407 	0
1.03751921329 	0.00270365616538 	0
1.04226207723 	0.00330162304236 	0
1.04888785481 	0.00287818030453 	0
1.05917779063 	0.00255157601512 	0
1.07383697483 	-0.00207055389903 	0
1.09891453315 	-0.00890017846448 	0
1.14090822855 	-0.0225039693185 	0
1.16579699664 	-0.0569860799634 	0
1.06726383464 	-0.138559266332 	0
0.871873265613 	-0.259003941389 	0
0.746281870933 	-0.350014889493 	0
0.738367939003 	-0.380017089369 	0
0.804198568837 	-0.344227674558 	0
0.873085098295 	-0.253371536206 	0
0.920868065463 	-0.163744664309 	0
0.964196418697 	-0.105117357114 	0
0.996728517308 	-0.0664654570408 	0
1.01581002413 	-0.0418272313292 	0
1.02469751044 	-0.0269112002886 	0
1.02962737048 	-0.0179557800154 	0
1.03157370367 	-0.0121776609228 	0
1.03163686313 	-0.00832674321223 	0
1.03121106586 	-0.00568265949848 	0
1.03052390471 	-0.00356585270328 	0
1.03333793309 	0.00274394606376 	0
1.03652409841 	0.00416710140162 	0
1.04157880904 	0.00608002457793 	0
1.04808072447 	0.00761997676561 	0
1.05919914617 	0.0109713454363 	0
1.0748905212 	0.0137775456142 	0
1.09944154513 	0.0190017516412 	0
1.14532930869 	0.0302608272656 	0
1.19699474597 	0.0441805730292 	0
1.1567516609 	0.0318108697554 	0
0.995186299574 	-0.0450111117614 	0
0.831850268592 	-0.144349959166 	0
0.750492207643 	-0.193821323165 	0
0.750272082871 	-0.18129062663 	0
0.792447634655 	-0.127157979227 	0
0.85628770642 	-0.0731885546493 	0
0.922949210661 	-0.0422184275011 	0
0.969203733828 	-0.0246698750817 	0
0.998585753802 	-0.0148939359693 	0
1.01521027859 	-0.0102094592359 	0
1.02388266117 	-0.00779125430953 	0
1.02794595863 	-0.00589923547576 	0
1.02922363232 	-0.0045986886232 	0
1.02932668817 	-0.0034624210478 	0
1.02888530634 	-0.00231559617202 	0
1.03176546002 	0.00350032926382 	0
1.0345420976 	0.00561534206167 	0
1.03912349983 	0.00872536916793 	0
1.04465841359 	0.0124517705798 	0
1.05416379931 	0.0185282637873 	0
1.06714893817 	0.0271402837796 	0
1.08488279422 	0.0408339221059 	0
1.11881079809 	0.0648253189339 	0
1.16464501394 	0.106243485843 	0
1.15852134657 	0.15431941963 	0
1.06074039746 	0.160441514518 	0
0.911704223106 	0.115383311295 	0
0.787411106901 	0.0740040673726 	0
0.745216317605 	0.0537595544854 	0
0.767181525511 	0.052939494962 	0
0.833350471412 	0.0597816413443 	0
0.913654307341 	0.0537696786676 	0
0.96781747771 	0.0381670569138 	0
0.999258311158 	0.0216633862756 	0
1.01628671654 	0.0108449939321 	0
1.0242964283 	0.00435778120932 	0
1.02783622417 	0.00103478595947 	0
1.02877486598 	-0.000550400140022 	0
1.02863838872 	-0.00106571098749 	0
1.02806147088 	-0.000937913280289 	0
1.02951053571 	0.00395156481829 	0
1.03155156835 	0.00645313678892 	0
1.03489120691 	0.0101319437215 	0
1.03879766295 	0.0151393600155 	0
1.04510192047 	0.0226982080634 	0
1.05329873232 	0.0344995786595 	0
1.06308769733 	0.0524562476295 	0
1.08030863247 	0.0807191076695 	0
1.10353421733 	0.130126641947 	0
1.09815903179 	0.19899571843 	0
1.03830621947 	0.255854709153 	0
0.925817849715 	0.272912175007 	0
0.814902938265 	0.260746817937 	0
0.770782257208 	0.232552250689 	0
0.785745378072 	0.203458460682 	0
0.853202721315 	0.176263833788 	0
0.94280880239 	0.13783826676 	0
1.00099590717 	0.0904164806027 	0
1.02507744148 	0.0502907265775 	0
1.03180875316 	0.0269416333856 	0
1.03292133591 	0.0135397636751 	0
1.03233525606 	0.00632042889967 	0
1.03086027041 	0.00252822574413 	0
1.02941873681 	0.000699608909806 	0
1.0281656644 	5.41099943546e-05 	0
1.0270176163 	0.00371076268041 	0
1.02819963127 	0.00607764420661 	0
1.02995551233 	0.00953872912668 	0
1.0317247406 	0.0146451593181 	0
1.03401774574 	0.0226052578341 	0
1.03641063292 	0.0356223907542 	0
1.03773256268 	0.0560487125854 	0
1.03915621257 	0.0868108024233 	0
1.03996833956 	0.136680514762 	0
1.021671009 	0.205147475394 	0
0.978201882639 	0.280371803857 	0
0.903075720567 	0.329034962597 	0
0.827543831411 	0.332596179286 	0
0.80213305625 	0.309554016001 	0
0.822694716455 	0.274578703815 	0
0.898805761809 	0.22825404195 	0
0.999370766216 	0.165577094553 	0
1.05669970572 	0.0992353203726 	0
1.06471619341 	0.0536573843649 	0
1.05445374093 	0.029414000864 	0
1.04565642964 	0.0151928517172 	0
1.03930262656 	0.00767594021561 	0
1.03453925666 	0.00339172541139 	0
1.03113366235 	0.00122511813033 	0
1.02877987541 	0.000372992037818 	0
1.02499193223 	0.00262624166638 	0
1.02548214943 	0.00432799049738 	0
1.02582632459 	0.00688067333625 	0
1.02535034183 	0.0108374075797 	0
1.0234404391 	0.0174434186509 	0
1.01929133182 	0.0286328269353 	0
1.01114991605 	0.0476291105841 	0
0.999071587012 	0.0759700059254 	0
0.982250337776 	0.119335484865 	0
0.947683522988 	0.178769498197 	0
0.907797184113 	0.250176915671 	0
0.867343889329 	0.310734993195 	0
0.831082696327 	0.327183132831 	0
0.826922177787 	0.309321568299 	0
0.864808459085 	0.267801725572 	0
0.963869779558 	0.198323504492 	0
1.07350028454 	0.11848143728 	0
1.1130760651 	0.0593244445411 	0
1.09650391287 	0.0316060484456 	0
1.07181700872 	0.0178544226002 	0
1.05549611428 	0.00905838835278 	0
1.04472148801 	0.00472030977194 	0
1.03761921066 	0.00194961311239 	0
1.03262869986 	0.00061895669718 	0
1.02934224756 	0.000112866943117 	0
1.02388553798 	0.00111317048861 	0
1.02399948091 	0.00178791754985 	0
1.02348439321 	0.00279419195345 	0
1.02144666267 	0.00420000640229 	0
1.01645383205 	0.00671837510411 	0
1.0067607497 	0.0111614787912 	0
0.990592261684 	0.0204928607098 	0
0.968254860251 	0.0357315434148 	0
0.936947086687 	0.0624567202113 	0
0.888339957113 	0.10336419307 	0
0.844984142857 	0.151079672801 	0
0.825846252951 	0.201024637345 	0
0.828138917468 	0.224540954883 	0
0.860756123366 	0.208826014527 	0
0.935346569992 	0.153920981537 	0
1.04957307042 	0.0758617438432 	0
1.13733986192 	0.0192285965498 	0
1.14256901404 	-0.000876640870153 	0
1.10654077913 	-0.000726611184329 	0
1.07743595894 	-0.000409637010063 	0
1.05880489904 	-0.0011512935972 	0
1.04638515731 	-0.000932898380916 	0
1.03857710378 	-0.00104696752102 	0
1.0330040001 	-0.000773551439318 	0
1.02943905175 	-0.000573577849617 	0
1.02378281691 	-0.000292292300447 	0
1.02398749522 	-0.000794537561671 	0
1.02358145372 	-0.0018138592515 	0
1.02171462595 	-0.00386233285494 	0
1.01666772086 	-0.00734211285106 	0
1.00582350975 	-0.0131741169985 	0
0.986519872385 	-0.0207112150687 	0
0.957557215187 	-0.0273972556183 	0
0.91450825961 	-0.025034762895 	0
0.857668366651 	-0.0119104109179 	0
0.813010507875 	0.00116401559449 	0
0.801789797031 	0.0132954696196 	0
0.831069460684 	0.0188200143941 	0
0.903289963893 	0.00605549884184 	0
1.00508030721 	-0.0318948436701 	0
1.1035663551 	-0.0698559716784 	0
1.14988285328 	-0.07094306407 	0
1.13293626758 	-0.0485400119219 	0
1.0969700531 	-0.0283485373611 	0
1.07267236491 	-0.017387468787 	0
1.05614617263 	-0.0112114560416 	0
1.04458666886 	-0.00703027340474 	0
1.03734731427 	-0.00459304682365 	0
1.03206276743 	-0.00272491572935 	0
1.0287928637 	-0.00163077478003 	0
1.02455993929 	-0.00140757939641 	0
1.0254927085 	-0.00289376015343 	0
1.02638954878 	-0.00566266139046 	0
1.0268321969 	-0.0105642224362 	0
1.02553348904 	-0.0189993504817 	0
1.01996178647 	-0.0334718138242 	0
1.00425959823 	-0.05702622106 	0
0.972402074836 	-0.086228710625 	0
0.920559259205 	-0.108863095219 	0
0.859603183184 	-0.122916407997 	0
0.818546303944 	-0.137727771425 	0
0.809845433942 	-0.156140158733 	0
0.841094850288 	-0.171055340008 	0
0.919018678437 	-0.176761628672 	0
1.01615631787 	-0.174162481641 	0
1.09162045259 	-0.157629851917 	0
1.11593436335 	-0.119821429943 	0
1.09907823586 	-0.0767174895661 	0
1.07640536531 	-0.0469710489106 	0
1.06102864016 	-0.0295828755386 	0
1.04902127427 	-0.0185988542066 	0
1.04014660616 	-0.0116208122485 	0
1.03445327882 	-0.00734815486734 	0
1.03013138281 	-0.00441462098999 	0
1.02746390099 	-0.00260404969097 	0
1.02601093553 	-0.00204458406624 	0
1.02814722011 	-0.00396391477898 	0
1.03109863558 	-0.00737288423861 	0
1.03504654717 	-0.0131876608536 	0
1.03974978422 	-0.0229721722299 	0
1.04413137913 	-0.0399565609229 	0
1.03930393267 	-0.0693973181112 	0
1.00931134277 	-0.113180759366 	0
0.951305338092 	-0.156568169127 	0
0.885798356078 	-0.190317666854 	0
0.844505800476 	-0.220572403362 	0
0.833287443172 	-0.246370153945 	0
0.850568843888 	-0.263820051914 	0
0.906766974056 	-0.263112988201 	0
0.983228089902 	-0.237746731128 	0
1.0446886334 	-0.192441736943 	0
1.06504404415 	-0.138011986633 	0
1.05744045194 	-0.0906679971524 	0
1.04997892388 	-0.057596365 	0
1.04438714896 	-0.0360249046305 	0
1.03837620197 	-0.0220702504588 	0
1.03357468949 	-0.0134684825471 	0
1.0302846666 	-0.0082556006941 	0
1.02751321626 	-0.0048950692383 	0
1.02569910613 	-0.00284086260723 	0
1.02768995345 	-0.00189103940561 	0
1.03096831183 	-0.00353347834755 	0
1.03582158711 	-0.00626554492491 	0
1.04287319992 	-0.0108780358323 	0
1.05305542768 	-0.0182391573804 	0
1.06725259219 	-0.0312746683547 	0
1.07811964419 	-0.0535099363401 	0
1.0597806902 	-0.0959419342433 	0
0.998499337049 	-0.152987958632 	0
0.92317573511 	-0.203276041237 	0
0.873915965194 	-0.242869436436 	0
0.854268709368 	-0.268865475902 	0
0.85674858097 	-0.28269341599 	0
0.888798695103 	-0.276835447551 	0
0.93768200388 	-0.241410866668 	0
0.985949175233 	-0.186607631473 	0
1.01196439607 	-0.129897989612 	0
1.0167143628 	-0.0866148480479 	0
1.02131852781 	-0.055694123828 	0
1.02505086656 	-0.0336519973959 	0
1.02610242677 	-0.0198713315655 	0
1.02614656582 	-0.0116727105409 	0
1.02568565459 	-0.00689564940355 	0
1.02469672363 	-0.00393310485404 	0
1.02385529339 	-0.00220149761878 	0
1.02887149742 	-0.000980494175382 	0
1.03273503312 	-0.00175885490413 	0
1.03867805711 	-0.00293097618419 	0
1.04739011475 	-0.00500230067798 	0
1.06062846213 	-0.0078564297459 	0
1.08014034112 	-0.0132407388936 	0
1.10376631717 	-0.0209968209424 	0
1.10796294088 	-0.0424977949092 	0
1.05962122271 	-0.0892379264474 	0
0.976754819357 	-0.148894870048 	0
0.910194191243 	-0.202863605202 	0
0.872098733555 	-0.23306804699 	0
0.855949091701 	-0.241114860857 	0
0.864156284236 	-0.225622080578 	0
0.888950873825 	-0.184892831154 	0
0.928680664091 	-0.135469808979 	0
0.964684854351 	-0.0889004446811 	0
0.982865854002 	-0.0560522012621 	0