1.01389503307 	-0.00785633739342 	-8.14079029369e-22
1.01505293396 	-0.0121928876798 	-6.39267387174e-22
1.01643491299 	-0.0169978690122 	2.71024996953e-22
1.01805621223 	-0.022582170014 	-2.80234457135e-23
1.01959084917 	-0.0290965210708 	-2.63458822062e-22
1.02055569966 	-0.0368628785555 	-1.80186158302e-22
1.01993724706 	-0.0457624877755 	-2.00979192509e-22
1.01601790514 	-0.0549091828242 	-1.14523451739e-21
1.00680539557 	-0.0657824369368 	1.72103160203e-20
0.9879118325 	-0.0715611397524 	1.43876871659e-21
0.960088915667 	-0.0664056660776 	7.65904278405e-23
0.930621093564 	-0.0416465483552 	1.92784877824e-21
0.91640191992 	0.00190799320446 	-4.97408158452e-24
0.929420877856 	0.0458934664098 	2.05234676206e-22
0.9583047339 	0.0712817322651 	-1.63645824626e-21
0.986207787603 	0.0769873493346 	1.97729055217e-21
1.00571304454 	0.071181778395 	2.13447384921e-20
1.01560602204 	0.0593391961375 	-1.74304758701e-21
1.02020764078 	0.0497353183876 	-1.85052261985e-21
1.02103817715 	0.0397659298168 	3.92810737414e-22
1.02016051579 	0.0310757315318 	1.00036274302e-21
1.01860425156 	0.0238509267148 	-3.92150269575e-23
1.01688925396 	0.017734833842 	-5.18395613435e-22
1.01539802499 	0.0125920146173 	1.2501448293e-21
1.01415457545 	0.00798470602589 	1.25958823421e-21
1.01823202879 	-0.0083796551789 	2.36322975559e-22
1.01982330676 	-0.0130033609231 	5.0001051262e-22
1.02192135672 	-0.0183459242074 	1.97051755404e-22
1.02445657651 	-0.0245484234573 	-7.53516051258e-23
1.02722567445 	-0.0320016186427 	4.15061028683e-22
1.02973955861 	-0.0412802958478 	-1.64606494395e-22
1.03101591971 	-0.05286006679 	2.58614213251e-22
1.02915451778 	-0.0677103039162 	1.19022467048e-22
1.02014543808 	-0.0862632569041 	-4.62733896353e-22
0.996983866912 	-0.104861447731 	-2.07954966028e-21
0.950443341791 	-0.114099670615 	-3.27009458948e-21
0.88329983743 	-0.0848184727863 	9.72659385185e-21
0.844823070623 	0.00195082689593 	1.66995833029e-22
0.881188053132 	0.0893267208539 	1.00152307475e-20
0.947303622664 	0.12045272691 	-9.14986400652e-21
0.994839024412 	0.112725382802 	-2.55597687227e-21
1.01954308334 	0.094071743921 	-6.02182862457e-22
1.02999750421 	0.0745262227775 	-3.99292219149e-22
1.03252277128 	0.058001809571 	-9.82424804317e-22
1.03147369561 	0.0448547325431 	4.78737183122e-22
1.02881458969 	0.0342635783864 	-1.05195917574e-21
1.02570730009 	0.0258529750146 	1.89189934181e-22
1.02285209364 	0.019012102555 	-9.08183630442e-22
1.0204572522 	0.0132944394083 	-1.15643740387e-21
1.01865165838 	0.00845006622549 	-7.25715000962e-23
1.02271943722 	-0.00861902629642 	5.25858974213e-24
1.02488644352 	-0.0132590705846 	9.55153152572e-23
1.02780030224 	-0.0188646983604 	-4.49479650858e-23
1.03147172701 	-0.0253942398126 	9.0319859384e-25
1.03590838913 	-0.0333869603938 	6.38441763918e-23
1.04083262857 	-0.0436537425552 	-5.20295658816e-23
1.04557582176 	-0.0573012858526 	5.87091320212e-23
1.04864824946 	-0.0764047203227 	-5.76736171692e-23
1.0463418897 	-0.104010903947 	5.84172769064e-23
1.02884085563 	-0.145104646478 	5.31511311601e-22
0.968780929373 	-0.197044818502 	1.09969856157e-20
0.812353513664 	-0.206779511048 	-1.98718591448e-21
0.667579174833 	0.000513923394747 	-2.66059277389e-21
0.808314681291 	0.208212798229 	-3.9064308596e-21
0.961857407092 	0.204147160846 	1.38874463739e-20
1.02555484112 	0.156132877575 	-9.40623614038e-22
1.04682773913 	0.114741962768 	-7.2924253705e-23
1.05147250623 	0.0848256377607 	1.65245002953e-21
1.04920651268 	0.0629956713969 	6.17465295715e-22
1.04426359541 	0.0471370286484 	-2.3716212623e-22
1.0386831497 	0.0352526134932 	-2.50757594758e-22
1.03350740086 	0.0262387507104 	3.48957926442e-24
1.02920943014 	0.0191123637791 	5.93865662799e-22
1.02578297569 	0.0132022975119 	-6.31691169167e-22
1.02324929746 	0.00844449768519 	-6.42886085411e-22
1.02727735616 	-0.00843254074997 	-1.33276994053e-24
1.03001065594 	-0.0130101208939 	3.67585306583e-23
1.03375843137 	-0.0184659627174 	1.36519165896e-23
1.0387017437 	-0.0249069270044 	9.30808979343e-23
1.04494276374 	-0.0327786832051 	1.16493594662e-22
1.05266896644 	-0.0430694453118 	6.83050853111e-23
1.06200338122 	-0.0570124598753 	-4.82390501964e-22
1.0729614125 	-0.0772530953322 	-4.53643214499e-22
1.0850961366 	-0.109462806448 	8.44491324113e-22
1.09493843032 	-0.167783020528 	-1.90908683795e-21
1.08400611195 	-0.291147403874 	1.72400728326e-21
0.874291531615 	-0.592297432371 	4.72328279887e-22
0.861455460786 	0.575480335931 	1.55909060189e-21
1.06667987153 	0.301496553018 	-1.78255961239e-22
1.09012723133 	0.18504844286 	-9.87063847079e-23
1.0884326246 	0.123819486378 	-5.51263402975e-23
1.07945419372 	0.0866789762234 	3.65724579537e-22
1.0686402301 	0.062119312498 	-8.05163117053e-23
1.05818692668 	0.0453264003347 	7.66460784506e-23
1.04900651209 	0.033348547539 	1.20945016107e-22
1.04143671959 	0.024654660558 	7.35858802392e-23
1.03548436561 	0.0178797580634 	-9.90915491786e-23
1.03099595722 	0.0123553816989 	2.30396607948e-23
1.02775888325 	0.00787851192835 	-1.47366887417e-23
1.03168823025 	-0.00770440075198 	2.7356746618e-23
1.03493914466 	-0.0121774074312 	-6.78285581036e-23
1.03946599374 	-0.0171385923763 	-6.94883791507e-23
1.04561354673 	-0.0230500591585 	1.75432968792e-24
1.05352196361 	-0.0302096476716 	-1.05544003875e-22
1.06385312107 	-0.039277657336 	-7.38365235788e-24
1.07742589039 	-0.0510982405554 	-8.49772267852e-24
1.09600819706 	-0.0674847115332 	4.21310825826e-23
1.12390861956 	-0.0927323235439 	-6.77554360961e-22
1.17127065277 	-0.137652155647 	-3.15497540429e-22
1.27201933792 	-0.22914867795 	2.70466326204e-22
0.0364697769569 	0.00147298899183 	-1.58154409046e-21
1.24053587647 	0.265345358751 	-1.79410667315e-22
1.17085081607 	0.168557367422 	2.35054854642e-22
1.13506098814 	0.111333970309 	6.19397069616e-22
1.10885075986 	0.0761296141616 	-1.75908729066e-22
1.08806747383 	0.0536056750981 	-1.9373092669e-24
1.07152279781 	0.0387294134558 	2.15380338002e-24
1.0585465078 	0.0284330658019 	2.59785216085e-23
1.04865594717 	0.0210304136981 	-4.04659072292e-26
1.04113254345 	0.0153305510364 	-2.51304080424e-23
1.03569992471 	0.0107600090003 	-3.30407563534e-23
1.03187568686 	0.00672507198132 	3.69754671239e-23
1.03555019197 	-0.00692811000116 	-6.54314702283e-24
1.03930561723 	-0.0105824842072 	9.34516462197e-23
1.04457604465 	-0.0149621034792 	4.26487786004e-23
1.05168263149 	-0.0199552248309 	1.6437507163e-23
1.06081050312 	-0.0259189047518 	1.86403131806e-22
1.07285065263 	-0.0329563040463 	2.70602470683e-22
1.08863599273 	-0.0410442140867 	-1.53292529018e-21
1.11079967014 	-0.0499670071661 	4.35571168884e-22
1.14494736945 	-0.0590213706319 	1.99006370334e-21
1.20564849878 	-0.0664211325066 	-1.22525647789e-20
1.31389902213 	-0.0665032912784 	3.52878807114e-20
0.172441254509 	-0.0313891590776 	2.04903960883e-21
-0.000393963641399 	-0.00672171041813 	-4.19620143123e-22
0.0929209907201 	0.0247251258622 	1.32366374436e-22
1.29170776056 	0.152161589553 	-2.56691226954e-20
1.22809659891 	0.11499539799 	8.43681630192e-21
1.17280236988 	0.077711266579 	8.30298861375e-22
1.13293131962 	0.0531977039656 	1.32198312032e-22
1.10353193013 	0.0375867321261 	1.07014185875e-21
1.08195156836 	0.0275424216956 	-1.76204866045e-22
1.06588404921 	0.0206624499095 	-1.1735018079e-22
1.0542203586 	0.0156387204755 	-5.73789243884e-24
1.04558301585 	0.0116997427853 	2.5800136752e-23
1.03938038391 	0.00831197100683 	2.14990974826e-23
1.03511566539 	0.00547486841265 	1.24565422099e-23
1.03891404073 	-0.00561407009067 	3.16126735978e-23
1.04295307855 	-0.00847723233581 	-5.47593983984e-22
1.04882330391 	-0.0120891625425 	6.1980372673e-22
1.05664595938 	-0.0159688603123 	-4.79442181476e-24
1.06651697173 	-0.0205943424171 	-4.53183199622e-22
1.0790627545 	-0.0255834313382 	-4.36942958351e-22
1.09482598126 	-0.0302314623393 	1.2077989445e-21
1.11475205062 	-0.0322218145698 	3.97285649444e-21
1.14193155562 	-0.0263794631965 	1.02557258534e-21
1.18596109973 	0.000151350584107 	3.69523345244e-21
1.24255215315 	0.0734818271651 	3.87391523045e-21
0.37332803709 	0.141706540836 	-5.64564680226e-21
-0.197611776884 	0.192713535319 	-3.11847982238e-21
0.245418547036 	0.143306973699 	-4.73794159846e-21
1.28394110603 	0.0735806637509 	-1.7710652673e-21
1.26266457377 	0.050839856194 	-3.15795608849e-21
1.19458782544 	0.0305235090446 	-9.93562362622e-23
1.14610095315 	0.0213139756439 	-4.05529133187e-21
1.11167663677 	0.0164057842197 	-1.11744823327e-21
1.08744533436 	0.0134366100389 	2.69858806407e-22
1.0700227719 	0.0112128449032 	2.96755410749e-22
1.05747539599 	0.0092630528462 	2.3412196717e-24
1.04840668894 	0.00744642475765 	-2.20073779761e-22
1.0418560152 	0.00546676945612 	1.5311925735e-22
1.03755211345 	0.0037836366917 	1.00600563758e-22
1.04154726362 	-0.00405471863377 	-4.16967665966e-22
1.04582590744 	-0.00611535886981 	-1.08796272546e-21
1.05205022277 	-0.0087014244378 	-7.19537577092e-22
1.06037192382 	-0.0114055235864 	1.07374156488e-22
1.07057469717 	-0.0147430137273 	-8.78258337526e-22
1.08343665445 	-0.0182416981029 	5.37691239659e-22
1.09751778356 	-0.0211983927356 	-1.30567346666e-21
1.11234469975 	-0.021101180527 	-8.2035790713e-23
1.12544813849 	-0.00991946060177 	-2.21839222726e-21
1.1287851757 	0.0234733899629 	-2.69167207389e-21
1.08235581809 	0.134326585106 	4.57693622391e-21
0.282183808109 	0.341566220563 	9.38129474604e-21
-0.166739608197 	0.39355504677 	5.64210822057e-22
0.508195183906 	0.165840523092 	1.14064012531e-20
1.29834125048 	-0.0330098300298 	-2.06910903545e-21
1.27605287977 	-0.0350891068144 	-2.51862909537e-21
1.19881988253 	-0.0255282059341 	-2.01550772702e-21
1.14415969287 	-0.0147391409839 	3.17887607908e-22
1.11053852249 	-0.00625190180264 	1.63913792479e-21
1.0869860656 	-0.00127662394636 	-5.75890270513e-22
1.07013064144 	0.00163557276741 	7.38772028707e-22
1.05813157424 	0.00291358390658 	-6.87299250817e-23
1.04944391578 	0.00320091952264 	3.14814646571e-22
1.04317630307 	0.00271057839297 	3.95654014893e-22
1.03906087018 	0.00211353372391 	2.80177954944e-23
1.04323470701 	-0.00232933800538 	1.19121604937e-21
1.04777383341 	-0.00353731308075 	9.8874022803e-22
1.05414429564 	-0.00492783248919 	-3.95250147734e-22
1.062845604 	-0.00636095726461 	-1.46252771606e-22
1.07338949344 	-0.00845114817012 	4.93208364954e-22
1.08619472128 	-0.0109636571937 	1.94547316447e-22
1.10045000334 	-0.0135244731391 	-2.15212481253e-22
1.11092301821 	-0.0177409324127 	5.24941007832e-22
1.11359893019 	-0.0188011977914 	1.57214104418e-20
1.08930204474 	-0.0134734211102 	7.18967234996e-22
0.911976492035 	0.058533198136 	-8.07377783188e-24
0.0998652164677 	0.23514505057 	1.38808700778e-21
0.0372789170791 	0.120088279147 	-5.42320635508e-22
0.79425737828 	-0.128743836679 	2.74348170718e-21
1.2849864465 	-0.205669263388 	-2.61517354558e-21
1.24413656306 	-0.13123084993 	3.372805104e-21
1.17005274569 	-0.0786767109851 	3.02749138591e-20
1.12612496294 	-0.044516837886 	6.10001663571e-22
1.10059927868 	-0.0267118224327 	2.78554453664e-21
1.08052945512 	-0.0134995904477 	-2.56525029574e-22
1.06653384161 	-0.00647645053338 	-5.65212992733e-22
1.05639447902 	-0.00237865380273 	1.02115780573e-22
1.04883286125 	-0.000380521758948 	2.16412716685e-22
1.04341795866 	0.000451302537435 	-3.67858856208e-22
1.03956076009 	0.000698744489787 	-2.5679960244e-22
1.0440187062 	-0.000374605758778 	-1.50175755914e-21
1.04858120404 	-0.000597813982295 	-5.64482884437e-22
1.05494807248 	-0.000866134181137 	-1.28213608701e-22
1.06394674829 	-0.000875119707181 	-3.87517049962e-22
1.07541395157 	-0.00141792512203 	1.72257010715e-22
1.08843475436 	-0.00136770270169 	-9.83638057967e-22
1.10359899798 	-0.00684554360922 	-8.8991220799e-22
1.11965808204 	-0.0145386278723 	-7.36167936269e-22
1.12906322186 	-0.0312027750664 	1.42314866168e-21
1.1060697194 	-0.0749805523833 	-2.04346614048e-22
0.80509193892 	-0.0753203442387 	5.80580680754e-22
0.162931284286 	-0.138401799033 	5.39861780076e-22
0.283533420376 	-0.327853898779 	-1.11232484021e-21
0.886983988957 	-0.432010139592 	4.91767344897e-21
1.17770494138 	-0.336364231249 	-3.5361671002e-21
1.14500313587 	-0.195380531987 	1.62213210215e-21
1.11546754556 	-0.112157932707 	3.71404909203e-21
1.09519920679 	-0.0648014321683 	-9.42176922402e-22
1.07979140833 	-0.0362573481491 	9.96711356939e-22
1.06990598791 	-0.0213779220489 	8.80495433029e-22
1.06061637808 	-0.0115468913143 	-1.28582315892e-21
1.05297115983 	-0.00572742509392 	2.08596413572e-22
1.04702519977 	-0.00275219598292 	3.80506495251e-23
1.04267102915 	-0.00120085732551 	4.03592299753e-22
1.03937051467 	-0.000391560943594 	1.5348471756e-22
1.04370221309 	0.00122775127781 	1.8070847539e-21
1.04821951954 	0.00254749293891 	-3.45590979117e-21
1.0543377548 	0.00334511632303 	1.90601241123e-21
1.06294141377 	0.00569401148465 	7.50030317845e-24
1.07452566776 	0.00632343256148 	2.43234621371e-21
1.08897571893 	0.00652390513769 	-5.96663558022e-22
1.1089140758 	0.00715485066535 	-1.75103190804e-21
1.13224945862 	-0.00117180171185 	1.00585277909e-22
1.17027266045 	-0.0183222715129 	7.76349344107e-22
1.17708432341 	-0.081647025295 	8.59391008438e-23
0.893319684097 	-0.172650452774 	-1.73389081623e-21
0.337905338133 	-0.435407816406 	8.14396454064e-23
0.38555152717 	-0.530198757747 	-3.34571475967e-22
0.823848240146 	-0.464427055682 	6.75422688469e-23
1.02069355963 	-0.331741308006 	-4.94502487625e-21
1.03202744356 	-0.191970601634 	6.65377658698e-22
1.05162654164 	-0.111515134501 	8.2181753885e-22
1.05836220164 	-0.0639133913141 	9.75546253225e-23
1.0596527758 	-0.036411484534 	-1.7547214225e-21
1.05638723605 	-0.0204235228455 	-5.20059875457e-22
1.05302544702 	-0.0121182459204 	1.34526146286e-21
1.04906100785 	-0.00683298313782 	-1.14312788905e-24
1.04472720131 	-0.00377548745058 	-1.04484633182e-21
1.04138594947 	-0.00208873996915 	1.56057881319e-21
1.0387408847 	-0.000979765097253 	-2.40905508143e-23
1.04246832698 	0.00286593510813 	-1.36730596011e-21
1.04683760178 	0.00544843709524 	6.95360971226e-23
1.05161279753 	0.00788473283368 	3.88176579256e-21
1.05984604057 	0.00994756729185 	-1.81697298371e-21
1.07142912546 	0.0141568570821 	2.6142532008e-21
1.08568591249 	0.0193094226879 	-2.81617468442e-21
1.10941745485 	0.0251051359867 	3.1654646052e-22
1.13691643909 	0.0293607557606 	-6.37923593884e-24
1.20399947895 	0.0301877176255 	2.47917180563e-21
1.24654850034 	0.00762817899959 	-3.03324902597e-21
1.06180866556 	-0.0596884449951 	3.77358330314e-21
0.562625066838 	-0.351206620385 	3.06134053452e-21
0.403189337373 	-0.491116928004 	-2.06324971543e-22
0.656009801787 	-0.396216942895 	-3.99790554765e-22
0.866635592811 	-0.229025698061 	-8.6293149428e-23
0.93970759005 	-0.130614685534 	-4.01533019451e-22
0.994162914135 	-0.0775714700547 	2.82704853706e-22
1.02886243929 	-0.0428018611088 	1.06446053761e-23
1.04134976301 	-0.0251586382371 	2.36576268863e-22
1.04728219448 	-0.0146483656376 	-1.56037792362e-21
1.04675826279 	-0.00872866003346 	1.28041334823e-21
1.04502968811 	-0.00536528764958 	-2.56866484504e-22
1.04264763334 	-0.0036449913834 	-1.77371457944e-21
1.04020392638 	-0.00210266964172 	9.16645408513e-24
1.03797041126 	-0.0012078670092 	3.07598305135e-22
1.04019065904 	0.00428228695056 	1.16046466403e-21
1.04418224192 	0.00698216986014 	-6.38083767857e-22
1.04820980568 	0.00985628727476 	-4.22794094529e-22
1.05512143051 	0.0148149607356 	3.6333181525e-22
1.06493265648 	0.0212236100036 	2.31596911271e-22
1.07809397923 	0.0316891766024 	1.13250379175e-21
1.09819790763 	0.0434441122335 	1.5520011446e-22
1.12127798224 	0.0638044353362 	-1.48604918468e-22
1.18298276237 	0.0917148170964 	-1.67623263324e-22
1.23713593021 	0.142743718621 	2.50461676615e-22
1.15696418273 	0.173259518751 	-2.45871756529e-21
0.847479124617 	0.0812135237961 	-2.39276087335e-21
0.533133492955 	-0.131040578203 	-6.54684203397e-22
0.52266334422 	-0.225470673443 	-2.87425315332e-22
0.731708901992 	-0.108082543041 	-2.73550593081e-22
0.892463801298 	-0.0297761782385 	-1.72255670323e-22
0.966969691513 	-0.0159252765961 	-1.05804583835e-23
1.01498768738 	-0.00871023709171 	1.26322075982e-22
1.03488509909 	-0.00535235042157 	8.26507715364e-23
1.04293644017 	-0.00505927530207 	2.37438803103e-22
1.04506539252 	-0.00407852332099 	1.73253527047e-22
1.04367602858 	-0.00314170803381 	8.41521911208e-23
1.04112550651 	-0.00242216719419 	-1.54326058152e-22
1.03927618226 	-0.00208559965891 	-4.50993303537e-22
1.03712364151 	-0.00150103949981 	-2.62342238113e-22
1.03745045378 	0.00510155556894 	-3.21878869223e-21
1.04004615328 	0.00778186088638 	1.05676306696e-21
1.04400802311 	0.01178576546 	-1.00035420262e-23
1.04945324291 	0.0174182596747 	8.21065400807e-23
1.05556554308 	0.0257036598298 	-6.14152256819e-22
1.06469579334 	0.0388161242907 	-3.97763168464e-22
1.07638130557 	0.0580110430792 	1.35136564599e-21
1.08910893122 	0.0880906344064 	3.40478679489e-23
1.11980663515 	0.134157553411 	7.05688565553e-23
1.16299997543 	0.223050799294 	-2.23427072142e-22
1.11034658829 	0.301806659201 	-1.74279231196e-21
0.921716282984 	0.31490380637 	1.6068565815e-23
0.685972503757 	0.230550658362 	-4.84512571518e-22
0.585111893073 	0.126473108225 	-3.33896258927e-22
0.657025197175 	0.0873393774549 	4.07141999471e-23
0.865200197794 	0.0973273949318 	-1.83576681148e-23
0.989256768397 	0.0697578228865 	-1.64593347165e-23
1.02928246263 	0.0299469314303 	6.47364515e-24
1.04395562055 	0.0141213454127 	-4.25304943704e-22
1.04735199578 	0.00481111262817 	2.81945484322e-22
1.04627585407 	8.84924244186e-05 	7.60816057923e-23
1.04418651146 	-0.00139044197219 	2.30898627785e-23
1.04144715185 	-0.00188457851413 	1.8660141333e-23
1.03830474975 	-0.00175335903617 	2.36187859625e-22
1.03640185842 	-0.00162335082827 	9.58968104351e-23
1.03463022319 	0.00453179530545 	-6.96314001338e-22
1.03647891438 	0.00763744591731 	-7.38045626186e-22
1.03877017637 	0.0117878083991 	2.21030485905e-22
1.04151018141 	0.0177759065966 	-1.46283184206e-23
1.04428761666 	0.025814456647 	2.04728535364e-22
1.04723503964 	0.0387849745423 	5.15094095721e-22
1.0504199127 	0.0586574429312 	4.04007372132e-23
1.0510086295 	0.0879989033704 	-5.60020946454e-22
1.05269682976 	0.137522422818 	4.7044472384e-22
1.05556658135 	0.221475860308 	3.24229177398e-22
1.02564145769 	0.322677512816 	-5.35022387156e-22
0.907424993511 	0.392218911345 	0
0.745354282214 	0.406545637071 	-5.88318894873e-37
0.670753981298 	0.370793439309 	-9.32681138282e-26
0.739303367696 	0.300796844322 	4.59592970731e-22
0.911698228533 	0.206616945479 	-3.83943968026e-22
1.0427637657 	0.12048269908 	-3.94589055733e-22
1.06906846566 	0.0599516232384 	5.91516017385e-22
1.06301679461 	0.0250348615655 	-3.67402102698e-23
1.0571355683 	0.0113069695455 	-2.74059477168e-22
1.05190513188 	0.00333998638239 	1.70621942648e-23
1.04675541329 	-0.000182682269105 	6.06430074992e-23
1.04249554253 	-0.00153608811802 	5.58354939002e-23
1.03866895521 	-0.00172709147477 	-9.88847142743e-23
1.03584074396 	-0.00102992669229 	-8.97609798573e-23
1.03242655652 	0.00414607771185 	0
1.03349746081 	0.0067880355504 	0
1.03451018354 	0.01021482394 	0
1.03549290978 	0.0152536196248 	0
1.03519551185 	0.0223303883888 	0
1.03303302335 	0.0335239062458 	0
1.02919559248 	0.0514516186585 	0
1.01745072526 	0.0790333275015 	0
0.995587525005 	0.123322594362 	0
0.969025755874 	0.193915898553 	0
0.932579239967 	0.293868174706 	0
0.842095968969 	0.387339923855 	0
0.732561449494 	0.42539932452 	0
0.707039355098 	0.402429414991 	0
0.815724242101 	0.323680661276 	0
1.01312303863 	0.201720164971 	0
1.12807610185 	0.101711131394 	0
1.1199296907 	0.0468712534442 	0
1.08884082306 	0.0194693912424 	0
1.06927194546 	0.00768383423736 	0
1.05755314562 	0.000518782129769 	0
1.04888899808 	-0.00150369169828 	0
1.04278826501 	-0.00247741526902 	0
1.03835283348 	-0.00230862593782 	0
1.03524101196 	-0.00155812661821 	0
1.0305316406 	0.00315161628799 	0
1.03113633516 	0.00494183717206 	0
1.03133377605 	0.00702164516003 	0
1.03075704622 	0.0099674732783 	0
1.02785332393 	0.0144453446184 	0
1.02114967297 	0.0211038477037 	0
1.00873805681 	0.0326280957838 	0
0.984194466043 	0.0529274930562 	0
0.943730312548 	0.0845581398428 	0
0.887994459653 	0.13354729916 	0
0.828975413342 	0.214031416993 	0
0.765837104324 	0.296337793763 	0
0.726600133243 	0.324523158452 	0
0.772693639502 	0.279007570555 	0
0.933591280733 	0.170870823233 	0
1.12526327364 	0.0618114186832 	0
1.19048139435 	0.0101339049033 	0
1.14614235188 	-0.00206152975225 	0
1.10044031429 	-0.00392845706954 	0
1.07521954113 	-0.00557431791701 	0
1.05983341459 	-0.00678899028327 	0
1.0491111205 	-0.00525307360029 	0
1.04246605631 	-0.00477992074415 	0
1.0375430805 	-0.00353304107405 	0
1.03433955986 	-0.00237360202333 	0
1.02918068313 	0.00186792833267 	0
1.02971062898 	0.00264446485778 	0
1.0296984811 	0.00314822687059 	0
1.02845130229 	0.00332841829973 	0
1.02434699519 	0.00315747477797 	0
1.01545295434 	0.00197685618035 	0
0.997454797198 	0.000479475048471 	0
0.965548942256 	8.50221165131e-05 	0
0.913760638931 	0.00420860738518 	0
0.837403498187 	0.0194074667164 	0
0.769252590295 	0.0550153186252 	0
0.734640987602 	0.0847916381836 	0
0.758806265659 	0.0789015596606 	0
0.873083365282 	0.0221441382019 	0
1.04426256652 	-0.0639211562773 	0
1.1759506676 	-0.0999237956283 	0
1.18894082933 	-0.0769198004701 	0
1.13453626056 	-0.0483247823553 	0
1.09333677096 	-0.030039446345 	0
1.0720033238 	-0.0206495353121 	0
1.05735163744 	-0.0149231237289 	0
1.04696549826 	-0.0101698629158 	0
1.04089334938 	-0.00755235158935 	0
1.03601731029 	-0.00501025920491 	0
1.03303976134 	-0.00319389766747 	0
1.0286681623 	0.000635892685244 	0
1.02953289149 	0.000475702197114 	0
1.03016412956 	-0.000569663787573 	0
1.03011222905 	-0.00310303366582 	0
1.02797006796 	-0.00829178248597 	0
1.0223964985 	-0.0181532243352 	0
1.00863049022 	-0.0351408321915 	0
0.979155807653 	-0.0633885510071 	0
0.921530837901 	-0.0944895177061 	0
0.833718868477 	-0.117163667943 	0
0.765597628335 	-0.127245291406 	0
0.748204264624 	-0.145531647259 	0
0.799385408874 	-0.17440826094 	0
0.928905727006 	-0.203980889349 	0
1.06442229898 	-0.217987732475 	0
1.13944259701 	-0.181507660574 	0
1.13881538134 	-0.118603717026 	0
1.10158752729 	-0.0729314839328 	0
1.075352027 	-0.0470024590296 	0
1.06145865481 	-0.0312276717484 	0
1.05053237571 	-0.0209665126478 	0
1.04247635915 	-0.0141084410603 	0
1.03764087923 	-0.00963733084214 	0
1.03357947055 	-0.00618149032419 	0
1.0311471415 	-0.00381368620415 	0
1.02894720387 	-8.04915913383e-05 	0
1.03067364511 	-0.00080152863704 	0
1.03292440032 	-0.00281384237612 	0
1.03583611024 	-0.00692367975092 	0
1.03884510382 	-0.0146114467862 	0
1.04204710401 	-0.029123367616 	0
1.04277911744 	-0.0541877815368 	0
1.02500406001 	-0.100190890903 	0
0.966201092155 	-0.159248958788 	0
0.869034986252 	-0.210865326422 	0
0.796166288957 	-0.248682336023 	0
0.779432257796 	-0.282082977348 	0
0.819076974137 	-0.308741669098 	0
0.920931195065 	-0.311983226375 	0
1.01834588208 	-0.274955519345 	0
1.06668943587 	-0.204451532474 	0
1.07470044898 	-0.133259213202 	0
1.0621492837 	-0.0835758054455 	0
1.05228328959 	-0.0546024991138 	0
1.04618904669 	-0.0356370537472 	0
1.04052615967 	-0.0232311199076 	0
1.03600617061 	-0.0154336609721 	0
1.03299864818 	-0.010224541709 	0
1.03036012729 	-0.00654015339542 	0
1.0287135569 	-0.00399708650059 	0
1.02950458995 	-0.000143958744917 	0
1.03234073635 	-0.000810666898301 	0
1.03652926207 	-0.0026452584922 	0
1.04251765425 	-0.00637135231302 	0
1.05110758029 	-0.0126598804083 	0
1.0637664689 	-0.0250747727709 	0
1.08190193524 	-0.045452238731 	0
1.08592562982 	-0.0855751216073 	0
1.0335141756 	-0.15496942101 	0
0.923005980743 	-0.229816865744 	0
0.834995536649 	-0.28634775633 	0
0.808174018886 	-0.32321052 	0
0.827052257234 	-0.343807436842 	0
0.888906687448 	-0.333588777827 	0
0.948631161931 	-0.275078399678 	0
0.988430025644 	-0.197395647375 	0
1.01305752203 	-0.13169201652 	0
1.0211769777 	-0.0839254969435 	0
1.0262173184 	-0.0535490603785 	0
1.02890432673 	-0.0334183619433 	0
1.02937356963 	-0.0209563121763 	0
1.02897324598 	-0.0134404202844 	0
1.02819895891 	-0.00870614925862 	0
1.02712300065 	-0.00557147824667 	0
1.02629032265 	-0.00340106825679 	0
1.02983112737 	0.000295801084914 	0
1.03336112414 	0.000160636217393 	0
1.03874553024 	-0.000395267086519 	0
1.04634331013 	-0.0019723273694 	0
1.05823833687 	-0.00414244307103 	0
1.07619884599 	-0.00942031535006 	0
1.10464906063 	-0.0165977411327 	0
1.13386059552 	-0.0312644105851 	0
1.11064510293 	-0.0757348826128 	0
1.00308971026 	-0.153136338397 	0
0.889189920859 	-0.234961087255 	0
0.833988230151 	-0.285793649768 	0
0.825452643563 	-0.302712507955 	0
0.846415604331 	-0.277871597836 	0
0.876532905622 	-0.215537700203 	0
0.918341314672 	-0.151261355007 	0
0.959736431712 	-0.0986712548269 	0
0.983912944542 	-0.0616380350571 	0
1.00128623713 	-0.0376757628764 	0
1.01323513594 	-0.022101000085 	0
1.02001663774 	-0.0133774915685 	0
1.0234478365 	-0.00829802199972 	0
1.02471032571 	-0.0053095014568 	0
1.02483057558 	-0.00337284399586 	0
1.02456021883 	-0.00205996211794 	0
1.02953900063 	0.00117280924601 	0
1.03303626038 	0.00183980094911 	0
1.03855073625 	0.00297062276205 	0
1.04615922456 	0.00411589023315 	0
1.05846877753 	0.0064031968584 	0
1.07645541991 	0.00906058008903 	0
1.10435968601 	0.014997659872 	0
1.14420940898 	0.0261561428552 	0
1.15501949729 	0.0289592242161 	0
1.08565053977 	-0.00382265440641 	0
0.970496855555 	-0.0720451419935 	0
0.877069278006 	-0.12597226267 	0
0.823416750317 	-0.142175102175 	0
0.807378500958 	-0.123853199426 	0
0.823421361837 	-0.0878828182396 	0
0.86982324489 	-0.0544285085353 	0
0.923688744109 	-0.0254803831053 	0
0.961028516661 	-0.00957940108605 	0
0.987030016612 	-0.00350831657753 	0
1.00523528435 	-0.00114144060326 	0
1.01592954629 	-0.00094707427309 	0
1.02125622778 	-0.000904720394521 	0
1.02339276668 	-0.000910908925341 	0
1.0239636531 	-0.000729772755225 	0
1.02385970357 	-0.000526311042993 	0
1.02846781115 	0.00225563234098 	0
1.03147882394 	0.00376844507611 	0
1.03636843258 	0.00627469282184 	0
1.04293168376 	0.00967749900764 	0
1.05346635234 	0.0153648844758 	0
1.06802834248 	0.0240022441378 	0
1.08851602229 	0.0383778991886 	0
1.12010983612 	0.0641829454054 	0
1.14102627536 	0.0998305890058 	0
1.10804028197 	0.121357265246 	0
1.01924127483 	0.111263941178 	0
0.913643156992 	0.0904203801739 	0
0.831764127765 	0.0784711640562 	0
0.798483875111 	0.0715124912878 	0
0.809157420078 	0.0664644478592 	0
0.854143475967 	0.0658706760068 	0
0.914441849583 	0.0655698604469 	0
0.962112364593 	0.055380900842 	0
0.992739041377 	0.0376961665239 	0
1.01094665307 	0.0225443454975 	0
1.01996108074 	0.0125950486681 	0
1.0236534724 	0.00678731009625 	0
1.02467073952 	0.00343257205925 	0
1.02461118352 	0.00164376348929 	0
1.02414396369 	0.00073845532567 	0
1.02685070316 	0.00293141560407 	0
1.02915143192 	0.00496126687487 	0
1.03281462251 	0.00823636211296 	0
1.03745991966 	0.013092850145 	0
1.04463887743 	0.02102961229 	0
1.05400822635 	0.0336378261882 	0
1.06488918473 	0.0532297638639 	0
1.08075936451 	0.0851452481381 	0
1.09517846096 	0.132450881963 	0
1.07402141719 	0.181559500509 	0
1.00481018739 	0.215591237218 	0
0.914485360025 	0.230902163662 	0
0.843365148253 	0.227489254377 	0
0.817080453572 	0.20917800361 	0
0.82664191346 	0.184727307498 	0
0.868975710082 	0.161244336611 	0
0.933647072637 	0.136469537174 	0
0.988776780267 	0.102382154718 	0
1.01947654417 	0.064845717514 	0
1.03028575619 	0.0374128106553 	0
1.03154460341 	0.0212336812654 	0
1.03027131859 	0.0118867981886 	0
1.02834774271 	0.00643060232274 	0
1.02660008872 	0.00331193404638 	0
1.02518767014 	0.00163583488941 	0
1.02498021697 	0.00275128858871 	0
1.02635884008 	0.00476600757259 	0
1.02831348611 	0.00810444780662 	0
1.03030329531 	0.0133372852843 	0
1.03292647135 	0.0221162723129 	0
1.03575156699 	0.0365191428096 	0
1.03688765798 	0.0590553650537 	0
1.03848733373 	0.0919302701156 	0
1.04097697944 	0.139005396085 	0
1.01826356355 	0.197190930324 	0
0.963107048101 	0.249903814534 	0
0.898335466027 	0.281094540827 	0
0.852360780303 	0.283278535843 	0
0.841713690574 	0.2665354259 	0
0.856514221854 	0.239490269669 	0
0.902308232284 	0.204251099955 	0
0.973290699463 	0.161876583519 	0
1.03357584209 	0.109561578809 	0
1.05818124423 	0.0641000949059 	0
1.05502977632 	0.0369061381391 	0
1.04584283983 	0.0212756481448 	0
1.03854408864 	0.0123477272923 	0
1.03316415664 	0.00695357625892 	0
1.02934211954 	0.00377907859631 	0
1.0267108733 	0.001963594236 	0
1.02327954699 	0.00178461435799 	0
1.02373786371 	0.00320010637245 	0
1.02399897023 	0.0056850478574 	0
1.0232353124 	0.00968029852799 	0
1.02103081767 	0.0167341285289 	0
1.01666014834 	0.0288089592359 	0
1.00892680979 	0.0489656929488 	0
0.999679774311 	0.0766949135065 	0
0.98856032161 	0.11685909661 	0
0.957243967807 	0.171323697029 	0
0.914255977612 	0.227381170044 	0
0.87775321001 	0.267717706161 	0
0.856284686374 	0.277218239132 	0
0.860907277874 	0.265095873853 	0
0.887733769366 	0.236514732218 	0
0.946929470543 	0.188968088438 	0
1.02982654591 	0.129690997514 	0
1.0862186121 	0.072937320621 	0
1.0924391575 	0.0390328881415 	0
1.07404883002 	0.0232529842069 	0
1.05683872668 	0.0136421802688 	0
1.04506732632 	0.00827747202163 	0
1.03717699463 	0.00479318953817 	0
1.03177012377 	0.00274885967665 	0
1.0282042253 	0.00148543314047 	0
1.02239656286 	0.00042497599515 	0
1.02235955362 	0.000741054174637 	0
1.02166035737 	0.00142789817481 	0
1.01918460841 	0.00245930207654 	0
1.01364396417 	0.00463128395381 	0
1.00347875362 	0.00896171943374 	0
0.988730642726 	0.0185769726938 	0
0.970822614511 	0.0336998434991 	0
0.946228523744 	0.0598380589826 	0
0.905113887057 	0.0982108050974 	0
0.866731764873 	0.138792199334 	0
0.849718614347 	0.175126789233 	0
0.853369269757 	0.191748015606 	0
0.8821127897 	0.185799969182 	0
0.933749544086 	0.153232201224 	0
1.00968997649 	0.0969055894023 	0
1.08966502052 	0.0436023175015 	0
1.12364803081 	0.0125449662745 	0