1.01399539739 	-0.00819144859996 	-1.71045186091e-21
1.01501399767 	-0.0127347084692 	-1.30441907927e-21
1.01617664215 	-0.0177498301105 	4.86369505204e-22
1.01744035174 	-0.0235976544551 	-7.61613794934e-24
1.01846012506 	-0.0303295385214 	-5.30063552285e-22
1.01873831898 	-0.0382681902772 	-2.72023978052e-22
1.01723069932 	-0.0471055861333 	-3.07912373315e-22
1.012135866 	-0.0556035376892 	-1.54284863527e-21
1.00188244314 	-0.0654640297106 	2.1910130971e-20
0.982381488461 	-0.0693708866358 	1.64063123404e-21
0.955035870533 	-0.0618448032297 	5.03569343238e-23
0.927507489189 	-0.0349220366809 	2.02110417869e-21
0.916403173799 	0.00956236341807 	-3.85046600591e-24
0.932479089349 	0.0525688920389 	2.31530186507e-22
0.963277205492 	0.075817527465 	-1.50262790625e-21
0.991655605778 	0.0791933425302 	1.75163040627e-21
1.01057734735 	0.0715539623895 	1.72458286995e-20
1.01944041619 	0.0587225558803 	-1.34324830589e-21
1.02291402741 	0.0484664597426 	-1.32001218613e-21
1.02287838912 	0.0384232440695 	2.75137449278e-22
1.02132646844 	0.0298903569851 	6.08613807646e-22
1.01926458226 	0.0228704972616 	-3.42875925713e-24
1.0171982818 	0.0170044392658 	-3.25215012757e-22
1.01549056145 	0.0120647616128 	7.28326152997e-22
1.0141043129 	0.00766057366371 	7.33271633308e-22
1.01856381442 	-0.00886000594252 	5.92088903087e-22
1.02007412141 	-0.0137845883028 	1.18703004266e-21
1.02201161825 	-0.0195338414656 	7.36269027735e-22
1.02424831281 	-0.0262574036243 	-1.56803888685e-22
1.0265244295 	-0.0343147691043 	7.89586530331e-22
1.02819640544 	-0.0442142815114 	-3.41881329177e-22
1.02823529167 	-0.0562580438214 	6.02671697545e-22
1.02477600134 	-0.0711704614325 	2.00471963027e-22
1.01353969831 	-0.08864044016 	-6.46675170932e-22
0.988767912485 	-0.104899670812 	-2.76601045836e-21
0.941957297008 	-0.110162698159 	-3.90281294978e-21
0.877566554056 	-0.0764926946876 	1.02014195566e-20
0.844872353152 	0.0122993679858 	1.67292443283e-22
0.886864984909 	0.0976066696264 	9.54727815865e-21
0.955659843988 	0.124365871099 	-8.01350558288e-21
1.00292409714 	0.112719418234 	-1.95744215281e-21
1.02601669296 	0.0917844327596 	-4.3396535716e-22
1.03433803108 	0.071207974744 	-2.60939306479e-22
1.03530702833 	0.0547276498085 	-5.15558561405e-22
1.03305568113 	0.0420272626677 	2.65789427084e-22
1.02957239593 	0.032034789108 	-6.32228228641e-22
1.02597540337 	0.0242084539252 	1.08129364308e-22
1.022823535 	0.0178746887392 	-3.82280030262e-22
1.02026792921 	0.0125440897074 	-6.21529058252e-22
1.01837793756 	0.00799727422894 	-9.56439251314e-23
1.02336555572 	-0.00915279132934 	1.20939487424e-23
1.02556023145 	-0.0141905390059 	5.24305662499e-22
1.02844750454 	-0.0203698017393 	-4.81333027194e-22
1.03197809918 	-0.0276625893965 	-2.40764304346e-24
1.03607973193 	-0.0366712428333 	2.26360447434e-22
1.04023848853 	-0.048198417941 	1.93371828781e-22
1.0435396448 	-0.0631620957756 	-4.23230255743e-22
1.04417171561 	-0.0832147844384 	-1.10848156123e-21
1.03839521362 	-0.11058257942 	-9.29168386569e-23
1.01689666193 	-0.149006029157 	9.92060974516e-22
0.953785498026 	-0.194169656861 	1.48758920794e-20
0.800381032288 	-0.193847209288 	-2.06336396682e-21
0.667664547951 	0.0191325781218 	-2.65558500645e-21
0.820276681491 	0.220987254935 	-3.665841724e-21
0.976630417811 	0.206958540514 	1.05811108307e-20
1.0372576937 	0.152337610933 	-5.631671809e-22
1.05461966249 	0.108366172179 	-1.06044535738e-23
1.05589864907 	0.0782487024243 	4.4885927048e-22
1.05126749377 	0.0573468081787 	8.88141033931e-23
1.04492578211 	0.0427615490446 	-1.6000247831e-23
1.03859684359 	0.0321002338641 	-1.05972702087e-22
1.03308293248 	0.0240705463967 	6.99928444071e-26
1.02864428145 	0.0176870924758 	1.81643405706e-22
1.02518024524 	0.0123303921903 	-2.34455202138e-22
1.02267637648 	0.00794343407145 	-2.63193065924e-22
1.02827464061 	-0.00891411382578 	4.62046059031e-23
1.03118647648 	-0.013914063208 	-7.9308850783e-24
1.03512571593 	-0.0200034451608 	8.40912800045e-23
1.04024157191 	-0.0273903702965 	-4.59700910626e-23
1.04651663709 	-0.0366335205464 	-6.78694005166e-23
1.05383534249 	-0.0488802062941 	-5.58717777891e-23
1.06184420444 	-0.0653114878592 	-3.45884116353e-23
1.06988258484 	-0.0882116107867 	-2.90967137073e-22
1.07665151711 	-0.12217269277 	2.35457481595e-22
1.07810970277 	-0.178929946792 	-8.0248479024e-22
1.05698003306 	-0.293289772049 	5.06197551584e-22
0.843120546156 	-0.570017367948 	-1.75371650884e-21
0.892528583339 	0.596889477447 	5.49403400181e-22
1.0931836493 	0.299124045808 	-1.43981913513e-21
1.10647715134 	0.174094774958 	-1.56323377505e-21
1.09663738949 	0.111488513735 	-4.91603739384e-22
1.0825061354 	0.0760874055825 	7.69934674278e-22
1.06887975389 	0.0541121655954 	3.29906223852e-22
1.05714477777 	0.0397254976923 	-3.84831674516e-23
1.04755974532 	0.0296393350599 	-7.04018917965e-23
1.04001328493 	0.022278424678 	-5.18527126034e-23
1.03422292921 	0.0164150018446 	-3.6186559594e-23
1.02991831481 	0.0115180091041 	-2.02335676216e-23
1.02685009296 	0.00743558523258 	1.23729666085e-25
1.03298655578 	-0.0079963897453 	-2.00978434032e-23
1.03658279002 	-0.0127873261098 	1.15722309498e-23
1.04158919975 	-0.0182943998261 	4.91877756692e-24
1.04835509881 	-0.0251670839546 	3.91015787341e-25
1.05692628658 	-0.0338762392244 	-3.85403738501e-23
1.06768180588 	-0.0454853806174 	-3.25465870806e-24
1.08082446712 	-0.0611629941274 	-5.01624145289e-24
1.09689680683 	-0.082777994693 	2.50526790634e-23
1.11810030144 	-0.113864040332 	-4.45826473146e-22
1.15199970527 	-0.162229475756 	-2.18131048045e-22
1.23099476792 	-0.249303041408 	2.12635768478e-22
0.0410934927069 	0.00153235026402 	-1.94392215224e-21
1.28031511004 	0.244898093415 	-2.43055563811e-22
1.18925290143 	0.144480210701 	3.43156296416e-22
1.14059588357 	0.0909083753628 	9.84148363529e-22
1.10806031041 	0.0613852363416 	-2.97549584195e-22
1.08487822456 	0.0438905455803 	-3.56595716509e-24
1.06791507884 	0.0327087762934 	7.20154655011e-24
1.05533327666 	0.0248723731724 	8.6395697865e-23
1.04606440387 	0.018981866778 	-2.62456016022e-25
1.03913288319 	0.0142047370257 	4.45389761186e-23
1.03417214851 	0.0101705254962 	4.02145790835e-23
1.03068678091 	0.00645264237532 	-1.0625911988e-23
1.03696680494 	-0.00686413786289 	-1.07226958315e-24
1.04124085964 	-0.0106005304018 	4.02514197437e-24
1.04730053663 	-0.0152702872897 	-1.26162226724e-23
1.05553584706 	-0.0209469061344 	9.78880689545e-24
1.06619937539 	-0.0282089490962 	1.04470316814e-22
1.08008399195 	-0.0379312946211 	1.86035499879e-22
1.09751016355 	-0.0509229599233 	-1.0609812599e-21
1.11962660305 	-0.0681193971577 	3.8520498727e-22
1.14860929248 	-0.0896161545122 	1.45370854939e-21
1.19216072022 	-0.11170156697 	-9.0608866745e-21
1.25980213488 	-0.114146405355 	2.65498992128e-20
0.124724926732 	0.00403163235724 	1.64212196469e-21
-0.000499268307836 	0.0148227092837 	-4.38507622828e-22
0.139223866376 	0.0471222897657 	5.15787273372e-23
1.34150973186 	0.103356494038 	-3.46324273586e-20
1.2401038978 	0.0712919531775 	1.12438869771e-20
1.16910955923 	0.0484788567309 	1.07989655045e-21
1.12457438166 	0.0357694356684 	3.14963319401e-22
1.09511454364 	0.0280210743337 	1.51436357217e-21
1.07506188345 	0.0226543621094 	-2.5533254447e-22
1.06073835551 	0.0183864355729 	-2.1556858677e-22
1.050547872 	0.0146654028143 	-9.80304670848e-24
1.04299536006 	0.0113842013513 	-2.8450908753e-23
1.03755882452 	0.00828630805408 	-6.25755887598e-23
1.03380055054 	0.00552155630256 	-1.26010403941e-22
1.04023276959 	-0.00508553907281 	-1.37478777233e-24
1.0448789571 	-0.00767968067548 	-2.56313160265e-22
1.05174799435 	-0.0111249276424 	3.2108585018e-22
1.06111990338 	-0.0150500875452 	-2.66276461857e-24
1.0734617957 	-0.0201935392087 	-3.28974559194e-22
1.08964652013 	-0.0270139081587 	-3.29929762548e-22
1.11035671846 	-0.0361849676254 	9.57576150747e-22
1.13581825564 	-0.0482558246634 	3.31219709771e-21
1.16586763944 	-0.0622467890211 	7.89931606604e-22
1.19815057056 	-0.0715203067382 	2.81450466431e-21
1.17491385077 	-0.0322268200876 	2.48830595484e-21
0.103063181602 	0.133511575613 	-3.72931751407e-21
-0.150757080435 	0.234719834497 	-3.49324856629e-21
0.453642261116 	0.105049251609 	-7.77183180386e-21
1.34029217473 	-0.0313798205151 	-2.84068427529e-21
1.24939859803 	-0.0160480993973 	-3.83916234788e-21
1.17191612363 	-0.00308398311874 	-1.30520863284e-22
1.12635351234 	0.00594143909377 	-4.73799731585e-21
1.09694573279 	0.0105171906868 	-1.38403275542e-21
1.07728052593 	0.0119022176882 	3.51446871279e-22
1.0633310292 	0.0115177390205 	4.10075665898e-22
1.05319003958 	0.010154300626 	4.55577606449e-24
1.04562141783 	0.00839142328634 	-4.98499994232e-22
1.04006376194 	0.00629883817163 	4.25974485592e-22
1.03633746512 	0.00432264804198 	3.65345636512e-22
1.04246454822 	-0.00306743045856 	-2.22031023757e-22
1.04730197521 	-0.00439274397727 	-6.41412259846e-22
1.05451924603 	-0.00621062417176 	-4.16091936778e-22
1.06449922595 	-0.00800301487542 	7.91552284321e-23
1.07775798535 	-0.0104190840281 	-7.31823293281e-22
1.09578034124 	-0.0134849428181 	4.80519057661e-22
1.1184743699 	-0.0181106424686 	-1.17584536578e-21
1.14633916494 	-0.0249146602341 	-8.61362419784e-23
1.17967353439 	-0.0366140209239 	-2.1756789298e-21
1.20596339744 	-0.0544071104249 	-2.4170113051e-21
1.06842951488 	-0.0387448195293 	2.83693651163e-21
0.042568280404 	0.000756672725285 	6.07522779076e-21
-0.122124525124 	-0.071269154444 	6.29472335603e-22
0.710901397886 	-0.198483625764 	1.57810499872e-20
1.28181475452 	-0.200221206728 	-2.76199685477e-21
1.20116313446 	-0.102663949324 	-2.72498944246e-21
1.14971519223 	-0.0497112985804 	-2.07140509211e-21
1.11252434092 	-0.0187160695768 	3.09075494525e-22
1.09053408227 	-0.00383633872434 	1.80594365002e-21
1.07498207368 	0.00311275225996 	-6.42158588139e-22
1.06309791181 	0.00575958933174 	8.89697623425e-22
1.0541261607 	0.0062330948591 	-9.67982094106e-23
1.04707505179 	0.00565336196746 	6.04945345301e-22
1.0418083735 	0.00442322911277 	7.40139302025e-22
1.03824086275 	0.00307701287267 	-1.70522728538e-23
1.04341336429 	-0.000991669981442 	6.76850229949e-22
1.0483105428 	-0.00109649765033 	6.18572088192e-22
1.0553429237 	-0.0010309287831 	-2.97372767135e-22
1.06531561688 	-0.000504273505765 	-1.01857292402e-22
1.07868948387 	0.000247872444705 	3.67653926341e-22
1.09683485853 	0.00141556752508 	1.85188977586e-22
1.12176725263 	0.00381327545366 	-2.33707627396e-22
1.15201624021 	0.00118778985778 	6.71858316607e-22
1.19212449774 	-0.00411466054312 	2.41206940062e-20
1.24023702703 	-0.0309729581488 	1.50816461499e-21
1.06303891083 	-0.0683966035017 	3.68718068769e-22
0.189681823069 	-0.278657544367 	2.26393064763e-21
0.00678645281392 	-0.464227454335 	-2.41565446842e-22
0.725599006098 	-0.444560850147 	2.04705069224e-21
1.12413413884 	-0.291747978408 	-1.81492766849e-21
1.10670021084 	-0.142357033857 	2.53111282332e-21
1.09883731682 	-0.0668124200816 	2.35775622586e-20
1.08696138142 	-0.0287757530299 	5.27436824542e-22
1.07918605956 	-0.0109923430699 	2.54978005882e-21
1.0698456052 	-0.00185507707164 	-2.63154406804e-22
1.06118332922 	0.00206255765925 	-7.1197692181e-22
1.05392371785 	0.00339054898198 	1.48431790873e-22
1.0476599441 	0.0034467948891 	2.99349154519e-22
1.04294110535 	0.00282931097765 	-6.47769400277e-22
1.03946550039 	0.00201592182181 	-5.42454004718e-22
1.04328444944 	0.000992955844522 	-9.46734608086e-22
1.04780427448 	0.00202058537587 	-3.63480102912e-22
1.05417769313 	0.00372583125236 	-9.24696743398e-23
1.06346891301 	0.00655560569415 	-3.05957823869e-22
1.07638202546 	0.0107802276345 	2.04427570481e-22
1.09266634477 	0.0179536027082 	-9.25128905221e-22
1.11518084274 	0.0235957014158 	-9.51049060083e-22
1.14992989346 	0.03497033693 	-1.24222652122e-21
1.19608254851 	0.0469785638668 	3.77437220223e-21
1.27709532577 	0.0455172812116 	5.87615719098e-22
1.17835308212 	0.018476518801 	-6.28598430968e-21
0.505332961808 	-0.254071530057 	-4.65464610305e-21
0.115319905215 	-0.516081223591 	-8.54357646639e-22
0.544026072777 	-0.426666383695 	1.25893599658e-21
0.940508133206 	-0.232974574922 	-1.2204648789e-21
1.00739042401 	-0.108274996947 	5.87822936245e-22
1.04897192036 	-0.0508697147946 	1.89813358665e-21
1.06395622072 	-0.0218753684859 	-6.25325837142e-22
1.0663956996 	-0.0077990581101 	8.74182330759e-22
1.06485916114 	-0.0024458100438 	9.579527305e-22
1.05924154405 	0.000744601757003 	-1.33206271561e-21
1.0533600841 	0.00170887504789 	2.73022112556e-22
1.0478197584 	0.00182685715124 	6.50108582737e-23
1.04356574504 	0.0014713523292 	6.93103155761e-22
1.04024124385 	0.00105919487606 	3.04846956654e-22
1.04203759298 	0.00252653539535 	1.15081395982e-21
1.04592239531 	0.00475996241008 	-2.39287654974e-21
1.0513107167 	0.00746062110141 	1.41823100656e-21
1.05884261601 	0.0125721912379 	6.70508477408e-24
1.06908951599 	0.0187633913994 	2.32480155029e-21
1.08255486134 	0.0279434163434 	-5.70117808293e-22
1.10116315379 	0.0436888375774 	-2.18677236628e-21
1.13086184672 	0.0663985259788 	1.24015406096e-22
1.16983895329 	0.100698951434 	1.61180944108e-21
1.25045505307 	0.15330629253 	1.5347909969e-21
1.22535655861 	0.204541482611 	-1.08186193655e-20
0.826108362627 	0.122981863707 	1.77983623195e-22
0.31879540866 	-0.153242776338 	-5.13765402849e-22
0.34163191727 	-0.275810351528 	5.52798888565e-23
0.803677961287 	-0.0849183698959 	2.12595224001e-21
0.957359048118 	-0.0176494381731 	-1.32168695134e-22
1.02157753712 	-0.00705335473954 	1.21182213657e-22
1.05386569561 	0.000196730979389 	6.31826728344e-23
1.0623362295 	0.000813503480804 	-1.1178181887e-21
1.06218859256 	0.00118514402796 	-5.05988311706e-22
1.0580432534 	0.00089080355535 	1.31971559852e-21
1.05301815789 	0.000136003823006 	-1.39685344431e-24
1.04793491091 	0.000490888111591 	-1.49674568929e-21
1.0438305152 	0.0002067803586 	2.50621397152e-21
1.04048835738 	0.000228128252942 	-7.28458283043e-23
1.04010470452 	0.00347972156842 	-8.97161062232e-22
1.04319324544 	0.00666624388951 	3.80169797361e-23
1.04686914271 	0.00985596910816 	2.8726831151e-21
1.05223282755 	0.0148134505591 	-1.49870285676e-21
1.05917407832 	0.0230775617895 	2.32766443928e-21
1.06828783517 	0.03588074709 	-2.64678494677e-21
1.08001878362 	0.0558192869156 	3.02408778262e-22
1.09470402576 	0.086470318137 	-1.69159363579e-23
1.11376985772 	0.135656635834 	2.87349886277e-21
1.15951798602 	0.220653481657 	-3.59844243702e-21
1.14402226037 	0.330695600735 	4.49908481194e-21
0.925738334093 	0.390309150418 	3.82453808646e-21
0.549706106053 	0.26970258559 	-3.10393418071e-22
0.416839686606 	0.103253446643 	2.97677030502e-22
0.658224751353 	0.0679905845164 	-7.03398072048e-22
0.950825015092 	0.0944135920376 	1.47706869113e-21
1.03822870855 	0.0498987326825 	-1.144839148e-21
1.0626495412 	0.0232569121802 	-1.24831955462e-24
1.06767457592 	0.0109244903783 	1.90920378942e-22
1.06514277913 	0.00361876751363 	-1.4921329536e-21
1.0594623088 	0.00120284091266 	1.41725027687e-21
1.0530431106 	-0.000310687578347 	-2.17762802862e-22
1.04759545391 	-0.00173364470637 	-2.66385575828e-21
1.04390827449 	-0.00120108640071 	-2.6424484557e-23
1.0404217786 	-0.00070681163748 	5.4978650741e-22
1.03781905163 	0.00382141970798 	7.18195465027e-22
1.04019209023 	0.00669726877542 	-4.33218465911e-22
1.04225551443 	0.00987585995132 	-3.23846067858e-22
1.04532224461 	0.0151137173982 	2.07024315609e-22
1.049328024 	0.0235231472501 	1.41077952519e-22
1.05218799523 	0.0363139883299 	9.05483180128e-22
1.05439881413 	0.0560855306106 	1.46026864878e-22
1.05507046498 	0.087602523642 	-3.57554651231e-23
1.0495629526 	0.137152314377 	-1.49552591632e-22
1.04810493589 	0.217883405824 	8.38676972057e-23
1.02574530998 	0.348027669525 	-1.1771852283e-21
0.895972320509 	0.447572452112 	-1.11269224239e-21
0.641844676177 	0.457381956056 	-4.21632848699e-22
0.529214531956 	0.39998144201 	-4.00790627426e-23
0.693589549668 	0.289671695009 	1.58177934224e-23
1.01431736651 	0.152830076294 	-1.42590547769e-23
1.10077947873 	0.0867219586872 	7.07001082564e-23
1.09478793053 	0.0315785581229 	5.31204720486e-23
1.08170661793 	0.0134564940133 	8.72918216175e-23
1.07222851684 	0.00217739991886 	3.50539168964e-22
1.0616748746 	-0.000970738097315 	3.02902124622e-22
1.05410490712 	-0.00261922315536 	2.18267610148e-22
1.0474051247 	-0.00232857413332 	-2.50361106108e-22
1.04345991096 	-0.00222165420737 	-8.22143658872e-22
1.03959527547 	-0.00190725100201 	-5.66798641278e-22
1.03540567006 	0.00384950480918 	-1.87021758901e-21
1.03678052329 	0.00578124340399 	6.17155339249e-22
1.03869681421 	0.00865594406434 	1.67880731985e-23
1.04007646258 	0.0129822703113 	5.08215037927e-23
1.04085719187 	0.0194660297924 	-3.13814229234e-22
1.03749533767 	0.0282560332526 	-1.24498782056e-22
1.03159931062 	0.0440196117142 	5.68888370351e-22
1.01717473286 	0.0682660334911 	2.22853181056e-23
0.981353350759 	0.10676615898 	2.16878140533e-23
0.940386071029 	0.175402513499 	-5.31296482248e-23
0.89792431908 	0.275682635404 	-1.93357698802e-22
0.791924867153 	0.397804110255 	4.68302038009e-24
0.63238534715 	0.477217778183 	-3.11056496546e-22
0.624067445312 	0.447770391242 	8.93860598026e-22
0.867461497181 	0.275632041204 	1.8445468423e-22
1.14167408319 	0.116366530536 	2.6191663324e-23
1.19230662659 	0.0541486684154 	-7.52132593973e-24
1.1322291709 	0.00637277645248 	3.30138121846e-23
1.09568929997 	0.00232939870496 	3.78515305103e-22
1.0782763572 	-0.00642316977673 	6.40259428335e-24
1.06350806143 	-0.00675388543372 	-2.08851265102e-22
1.05408321374 	-0.00572308242783 	4.14278736236e-23
1.04687230715 	-0.00520191637301 	-2.33450143937e-24
1.04164023972 	-0.003681791335 	6.65842178594e-22
1.03854646984 	-0.00300758500171 	1.64276430045e-22
1.03373725582 	0.00253630366151 	-3.63944373002e-22
1.03475850781 	0.00415112969932 	-3.84622026465e-22
1.03554708745 	0.00589659209582 	1.28659976022e-22
1.03555930927 	0.00817863143405 	2.83933184187e-23
1.0333556236 	0.0115495582071 	9.87798195083e-23
1.02737434518 	0.0157091565054 	5.78127956676e-23
1.01571119477 	0.0230479878104 	-5.00222387146e-24
0.989564338756 	0.0373066488686 	1.45724272212e-22
0.94239473083 	0.0593233067434 	-1.00643025862e-22
0.872255516081 	0.0983482730682 	-1.2856348607e-22
0.777972657221 	0.183027036285 	1.20515229054e-22
0.675516654874 	0.271812229626 	0
0.647134410991 	0.281849049252 	-1.50719628731e-35
0.784083955527 	0.18531387685 	-2.38940744742e-24
1.0341124209 	0.0400229587689 	-7.83386957014e-22
1.20538687029 	-0.0341772809657 	3.84952684553e-22
1.20937479706 	-0.0337808789227 	6.9292651314e-22
1.14426429837 	-0.0280931130936 	-4.31377957177e-22
1.09926153696 	-0.0213190810752 	1.79205612996e-23
1.07748369834 	-0.0165208351253 	2.37762267965e-22
1.06223934202 	-0.0143577072248 	1.14709135036e-22
1.05187955718 	-0.00988388936894 	6.93498887418e-24
1.04536919449 	-0.00759973887218 	1.17261138313e-22
1.04018567741 	-0.00521364637263 	-3.99230802206e-22
1.03687736934 	-0.00294036855206 	-3.693383078e-22
1.03293369606 	0.00182725770644 	0
1.03410773693 	0.00265920273261 	0
1.03508207777 	0.00307964446699 	0
1.03503190669 	0.00309068306098 	0
1.03288269399 	0.00237033157999 	0
1.02692504661 	-2.0755773523e-06 	0
1.01239788878 	-0.00406938768997 	0
0.981850359277 	-0.0100286208598 	0
0.924930586521 	-0.019097769366 	0
0.82715068707 	-0.0179144577396 	0
0.726640503717 	0.0129963839594 	0
0.675478971781 	0.0218965602875 	0
0.724441661258 	-0.0249926361036 	0
0.896796993556 	-0.11087282896 	0
1.09235600062 	-0.174463716093 	0
1.19142864654 	-0.156651095521 	0
1.17590908154 	-0.102030478668 	0
1.12037736485 	-0.0633653030175 	0
1.08649407793 	-0.0416306293914 	0
1.0696236403 	-0.0282813563142 	0
1.05662034039 	-0.0203575779266 	0
1.0477683 	-0.0139010480782 	0
1.04229974716 	-0.00989342905749 	0
1.03781645841 	-0.00664005204426 	0
1.03497180135 	-0.00400022059785 	0
1.03233183838 	0.00118421789303 	0
1.03396627734 	0.00137602485735 	0
1.03572356288 	0.00072843590406 	0
1.03722130782 	-0.0013126388646 	0
1.03750659074 	-0.00611614117517 	0
1.03596389576 	-0.0158509807305 	0
1.02851937685 	-0.032822373652 	0
1.00687583205 	-0.0664140726103 	0
0.951009445109 	-0.114128630502 	0
0.840119251505 	-0.159384413738 	0
0.742302960891 	-0.186982389085 	0
0.716077970658 	-0.219899560006 	0
0.780015171735 	-0.262405254814 	0
0.930654890367 	-0.289165684271 	0
1.06752137385 	-0.274549124287 	0
1.12169597519 	-0.206947606811 	0
1.11143575117 	-0.129824393871 	0
1.08351473286 	-0.0805868256638 	0
1.06605449631 	-0.053637454432 	0
1.05626537762 	-0.0356537526545 	0
1.0479911653 	-0.023991342163 	0
1.04195768595 	-0.0164142044449 	0
1.03802033091 	-0.011147272914 	0
1.03470106136 	-0.00731040346611 	0
1.03260930781 	-0.00451120523496 	0
1.03205031107 	0.000876452575468 	0
1.03432966734 	0.000763031157797 	0
1.03737507546 	-0.000378681475566 	0
1.04145561592 	-0.00330298355946 	0
1.04634767887 	-0.00927378466271 	0
1.05287008751 	-0.0218832910629 	0
1.06214346052 	-0.0431115953114 	0
1.06233414255 	-0.0867192004864 	0
1.01679529177 	-0.156990578791 	0
0.897143052623 	-0.234316289395 	0
0.787037218324 	-0.293241715482 	0
0.753930918606 	-0.33428123912 	0
0.795807747009 	-0.361408862417 	0
0.907080921584 	-0.354997749771 	0
1.00052851237 	-0.29579939794 	0
1.03598736064 	-0.208404205681 	0
1.04561944086 	-0.133736546666 	0
1.04542860342 	-0.0844788229231 	0
1.04363580005 	-0.0559284033003 	0
1.04111240525 	-0.0365728273246 	0
1.03828594153 	-0.0240380767886 	0
1.0356276485 	-0.0162299992068 	0
1.03341529502 	-0.0107799994655 	0
1.03144767632 	-0.00704718416705 	0
1.03012419981 	-0.00436469051353 	0
1.03201341721 	0.000969363472856 	0
1.034977426 	0.000985322949132 	0
1.03948380463 	0.000319007912786 	0
1.04588919316 	-0.00181171399649 	0
1.05551485988 	-0.00537247987167 	0
1.06966194767 	-0.0140813551583 	0
1.09382468624 	-0.0277641926473 	0
1.12113120711 	-0.0548504474214 	0
1.10122350233 	-0.113845980099 	0
0.978128540172 	-0.206393625861 	0
0.839390750114 	-0.293901589331 	0
0.782592347041 	-0.345638290923 	0
0.795939574887 	-0.367160666528 	0
0.857895716968 	-0.344555305138 	0
0.914606534548 	-0.268922656605 	0
0.952377869157 	-0.184063651471 	0
0.985005993567 	-0.120831060891 	0
1.00558505791 	-0.0763937610797 	0
1.01823886391 	-0.0482800922204 	0
1.02466384912 	-0.0303861419758 	0
1.02788389003 	-0.0195856412517 	0
1.02907030062 	-0.0129347939638 	0
1.02893768627 	-0.00861462546805 	0
1.02834861435 	-0.00571918922243 	0
1.02770486591 	-0.00356692174475 	0
1.03177675605 	0.00150980067074 	0
1.03514100465 	0.0020929513661 	0
1.04048287488 	0.00283201863844 	0
1.04775498149 	0.00294832184332 	0
1.05960467479 	0.00360823674522 	0
1.07694623122 	0.00256617049359 	0
1.10528277625 	0.00220941489304 	0
1.14922073312 	0.00284935968472 	0
1.1674205977 	-0.011713639382 	0
1.07991056708 	-0.0690572775584 	0
0.928735239895 	-0.163828088615 	0
0.826672759467 	-0.238673351798 	0
0.792922702605 	-0.265132100249 	0
0.804406076631 	-0.238219845421 	0
0.835777569631 	-0.174986919018 	0
0.884332443757 	-0.115515215138 	0
0.936475994534 	-0.0721837038588 	0
0.971863057579 	-0.0434689541564 	0
0.995925003939 	-0.0257570220605 	0
1.01113007549 	-0.0154379952848 	0
1.01971895432 	-0.0100570909819 	0
1.02406951553 	-0.00675295825814 	0
1.02569805944 	-0.00474682508883 	0
1.02609373403 	-0.0033125855999 	0
1.02591228789 	-0.0021287864433 	0
1.03076458948 	0.00243859931479 	0
1.03391432072 	0.00385555060468 	0
1.03898545211 	0.0060910489479 	0
1.04561161054 	0.00865870083496 	0
1.05668351288 	0.0130600749293 	0
1.07234164544 	0.0190085263554 	0
1.09565342358 	0.0294979681666 	0
1.13616177219 	0.0494786266955 	0
1.17302041852 	0.0773143965031 	0
1.13688651657 	0.0868429024672 	0
1.01900101481 	0.0453551245331 	0
0.891033151121 	-0.0135951835027 	0
0.804275057642 	-0.041443621419 	0
0.775766038912 	-0.038091416563 	0
0.793867660617 	-0.0184982884455 	0
0.847549196498 	0.00182087027778 	0
0.912447729843 	0.014952979431 	0
0.959083171356 	0.0165638317409 	0
0.9894784259 	0.0114827408071 	0
1.00840896384 	0.00659541678617 	0
1.01850547725 	0.00289311805045 	0
1.02329570427 	0.000883046180472 	0
1.02505312389 	-0.000170983931723 	0
1.02544524748 	-0.000539404676783 	0
1.0252294918 	-0.000518171572772 	0
1.02891342494 	0.00325847038335 	0
1.03137853512 	0.00533565243362 	0
1.03542307993 	0.00852457133695 	0
1.0405578284 	0.0128147195795 	0
1.04900102108 	0.0196581617534 	0
1.06039900149 	0.0302308216991 	0
1.07535363041 	0.0468655031828 	0
1.10075907153 	0.0749983927161 	0
1.12920508276 	0.121095022963 	0
1.11374612991 	0.171259792817 	0
1.03543536709 	0.195785169114 	0
0.922933737585 	0.191177228263 	0
0.824749652732 	0.176626775466 	0
0.7847606271 	0.156721407213 	0
0.796115642012 	0.137755071432 	0
0.848219670379 	0.124220746911 	0
0.920726106105 	0.106629046675 	0
0.9759530013 	0.0786323637863 	0
1.00648619068 	0.0481290921828 	0
1.02058363903 	0.0270391665777 	0
1.02592059085 	0.0144886896025 	0
1.0274996332 	0.00744808330475 	0
1.02724754441 	0.00355182803688 	0
1.02647959958 	0.0015470190786 	0
1.02560780546 	0.000648024881051 	0
1.02678645403 	0.00339460264709 	0
1.02848053417 	0.0056458663663 	0
1.03115436325 	0.00912823898901 	0
1.03426735923 	0.0142574807623 	0
1.03899672412 	0.0224679162875 	0
1.04489765668 	0.0357251554233 	0
1.0507685942 	0.0562424781798 	0
1.05967773684 	0.0878105465409 	0
1.07097971978 	0.137717697411 	0
1.05421529814 	0.20082352012 	0
0.996362854056 	0.258028622519 	0
0.912172168076 	0.288505306071 	0
0.838736154552 	0.286988354215 	0
0.812110103074 	0.26530878373 	0
0.824509577807 	0.234954505703 	0
0.878212939197 	0.201495004773 	0
0.957593871865 	0.160558200233 	0
1.01790969963 	0.109022678287 	0
1.04191498719 	0.0634707834324 	0
1.04289984923 	0.0356119965314 	0
1.03866082552 	0.0195551469341 	0
1.03465312836 	0.0105845734212 	0
1.03117753025 	0.00539153193502 	0
1.0285344662 	0.0025407630413 	0
1.0265917955 	0.00117552491297 	0
1.02487300258 	0.00271685034146 	0
1.02578590796 	0.00462351735203 	0
1.02689822106 	0.00768069643506 	0
1.02753676175 	0.0124360010582 	0
1.02774579986 	0.0203853103845 	0
1.0269402425 	0.0336708998146 	0
1.02329873455 	0.0551957582605 	0
1.01835672276 	0.0862126936948 	0
1.01301990269 	0.132727873812 	0
0.986125759817 	0.19458713709 	0
0.940447443852 	0.259885109551 	0
0.888622295684 	0.305055187391 	0
0.846454220685 	0.311998321064 	0
0.837368791027 	0.294736360261 	0
0.858393065076 	0.262767876923 	0
0.922428124878 	0.215997447027 	0
1.01374773783 	0.154579538547 	0
1.07291071866 	0.0911944534108 	0
1.08034356149 	0.0501444684098 	0
1.06487019705 	0.028847588374 	0
1.05106500971 	0.0161319064582 	0
1.04164996912 	0.00917224602541 	0
1.03519484929 	0.00488171293328 	0
1.03070943039 	0.00245107179947 	0
1.02769508556 	0.00116562430176 	0
1.0234921773 	0.00148215207411 	0
1.0237079727 	0.00252739471838 	0
1.02343978158 	0.00429894670626 	0
1.02177996662 	0.00704640978686 	0
1.01776189144 	0.0119479247373 	0
1.01019544478 	0.0205639878073 	0
0.997948341482 	0.036196297667 	0
0.982336231811 	0.0588122242037 	0
0.961885322152 	0.0941923050331 	0
0.922520359829 	0.144626229301 	0
0.881713356411 	0.200234533906 	0
0.85690531912 	0.25047828639 	0
0.845985384128 	0.26981492922 	0
0.859569221298 	0.257635168358 	0
0.903088277324 	0.217406994443 	0
0.987887659916 	0.151230549303 	0
1.08257082542 	0.0831769097323 	0
1.12107575724 	0.0367107445979 	0
1.10432433097 	0.0189917089257 	0
1.07753996817 	0.0117616602168 	0
1.05856199707 	0.00656299490612 	0
1.0459831862 	0.00397720530617 	0
1.03782377908 	0.00213070897161 	0
1.0321791812 	0.0011782593542 	0
1.0285265777 	0.000587233616025 	0
1.02294234333 	1.96108254902e-05 	0
1.02290604404 	-0.000148128194108 	0
1.02216508829 	-0.000391471431126 	0
1.01968086581 	-0.00100750648041 	0
1.01384824909 	-0.0018005625569 	0
1.00241373003 	-0.0026385460794 	0
0.984511643749 	-0.00122107160726 	0
0.960775898983 	0.00431736955333 	0
0.927158526559 	0.0204239825879 	0
0.8785197015 	0.0481352730027 	0
0.837410049121 	0.0761450773304 	0
0.825004829517 	0.104208730232 	0
0.842504473105 	0.119925032888 	0
0.891098981927 	0.112205681173 	0
0.966671600275 	0.0745947284463 	0
1.05860183892 	0.0179186063066 	0
1.1288494866 	-0.0177435378396 	0
1.1369266899 	-0.0220961142886 	0
1.1060342001 	-0.0132265501936 	0
1.07827374062 	-0.00732472560865 	0
1.0594312958 	-0.0047010970656 	0
1.04652851048 	-0.00274691382774 	0
1.03824538014 	-0.00180986320478 	0
1.03239088648 	-0.00100390350408 	0
1.02869970526 	-0.000549070831811 	0
1.02352684821 	-0.00135093901113 	0
1.02400104665 	-0.002699125806 	0
1.02412546887 	-0.00501138494812 	0
1.023108106 	-0.00905726101494 	0
1.01933008516 	-0.0158598952131 	0
1.00963060799 	-0.02704620323 	0
0.990556324947 	-0.0431276155923 	0
0.960810045931 	-0.0587726134734 	0
0.917533738914 	-0.0654555022409 	0
0.86520742359 	-0.0649380282983 	0
0.827029336261 	-0.0675682643897 	0
0.817685475556 	-0.0735763181406 	0
0.844701639411 	-0.0784365233386 	0
0.913024873138 	-0.0824562926643 	0
1.00399465935 	-0.0934614928725 	0
1.0836847183 	-0.104943968927 	0
1.12345482524 	-0.0933095542525 	0
1.11691865162 	-0.0634836808986 	0
1.09043231332 	-0.037940115516 	0
1.06957634744 	-0.0232266454003 	0
1.05434177422 	-0.0144067208831 	0
1.04337988122 	-0.00876082904546 	0
1.03628951741 	-0.00542965958971 	0
1.03112264987 	-0.00316204899719 	0
1.02789666176 	-0.00179362918512 	0
1.02509369213 	-0.00227986312017 	0
1.02667379921 	-0.00435401879506 	0
1.02864755308 	-0.00788723267621 	0
1.03081847568 	-0.0138601812235 	0
1.03228336691 	-0.0239559977193 	0
1.03015539982 	-0.0410288925664 	0
1.01597435237 	-0.0691723912343 	0
0.983324792597 	-0.103424722 	0
0.933289635523 	-0.130884563521 	0
0.878839648255 	-0.151867148111 	0
0.843538793102 	-0.17361125974 	0
0.833411525579 	-0.194080184018 	0
0.851638537042 	-0.208864799439 	0
0.90952394144 	-0.209243780833 	0
0.991887724827 	-0.19552249115 	0
1.05965587375 	-0.170178588618 	0
1.08552323212 	-0.130542361495 	0
1.07916293933 	-0.0873181706262 	0
1.0657217244 	-0.0545455622968 	0