1.01400205789 	-0.00771937503564 	-8.11453212169e-22
1.01533494496 	-0.0120319378819 	-6.35776143812e-22
1.01695966656 	-0.0168678479035 	2.69056479728e-22
1.0189271585 	-0.0225615481335 	-2.87386205164e-23
1.02088781388 	-0.0293122925826 	-2.58855910505e-22
1.02234726965 	-0.0374857346348 	-1.79755792111e-22
1.02230070618 	-0.0470655020025 	-1.99650758432e-22
1.01889322741 	-0.0571313883601 	-1.14304248497e-21
1.010074621 	-0.0692585637706 	1.72158728623e-20
0.991147679305 	-0.0764535065668 	1.44262614251e-21
0.96276919406 	-0.0727305588761 	7.74145161892e-23
0.932135025738 	-0.0490732668199 	1.93605544038e-21
0.916378427586 	-0.00594799251306 	-5.44756023047e-24
0.927776589595 	0.0384987235574 	2.0434405518e-22
0.955521170095 	0.0650300388376 	-1.65501157635e-21
0.982917316284 	0.0721876587454 	2.00525750157e-21
1.00243967695 	0.0678017265285 	2.18636183874e-20
1.01275519977 	0.0572087924139 	-1.79582888559e-21
1.01790087142 	0.0485024290013 	-1.92431830578e-21
1.01929527691 	0.0391828436561 	4.0958262677e-22
1.01891141812 	0.0308834672703 	1.05783957693e-21
1.01778025771 	0.0238854914286 	-4.44555694557e-23
1.01640395961 	0.0178684891197 	-5.4635399396e-22
1.01514867032 	0.0127554600517 	1.3244826988e-21
1.01407396455 	0.0081205922789 	1.33376512838e-21
1.01825626119 	-0.00809654141371 	2.35254331881e-22
1.02004458217 	-0.0126006126054 	4.95534839262e-22
1.02244454718 	-0.0178455776202 	1.90494301378e-22
1.0254120487 	-0.0240081372476 	-7.42230189095e-23
1.02877283519 	-0.0315285274777 	4.08675966e-22
1.03204259241 	-0.0410791627189 	-1.59879905894e-22
1.03416260659 	-0.0532059911836 	2.48094593741e-22
1.03315909946 	-0.0690173320755 	1.17561303974e-22
1.02494330843 	-0.0890598907061 	-4.61963686203e-22
1.00199028131 	-0.109498978856 	-2.07823583718e-21
0.954858780071 	-0.120886840535 	-3.27398575028e-21
0.885966482019 	-0.0935362316544 	9.74834260464e-21
0.844757844146 	-0.00757394385816 	1.67739512842e-22
0.878346521218 	0.0807080218846 	1.00866131682e-20
0.942755363259 	0.113806648786 	-9.26920353542e-21
0.989772483941 	0.10825087335 	-2.61765697848e-21
1.01474941303 	0.0914462217768 	-6.20153331003e-22
1.02604319429 	0.0733527042886 	-4.17471739653e-22
1.02944256546 	0.0577502575395 	-1.04951966718e-21
1.02924483364 	0.0451247954631 	5.09585467033e-22
1.02733344986 	0.0347825052434 	-1.11324805423e-21
1.02480698045 	0.0264233401088 	2.00994061848e-22
1.02237248149 	0.0195335068703 	-9.83797076365e-22
1.02027351508 	0.0137080152428 	-1.23259893164e-21
1.01865650012 	0.00874459437867 	-6.99746400849e-23
1.02255973011 	-0.00817087275149 	5.21769202475e-24
1.0249198502 	-0.0125511726231 	9.26544341822e-23
1.02816063564 	-0.0178907417377 	-3.94258623356e-23
1.03231307073 	-0.0241626892246 	1.0032843781e-24
1.0374580514 	-0.0319302706483 	5.95184282159e-23
1.04336977712 	-0.0421363388734 	-6.36274060003e-23
1.04938027945 	-0.0560578042106 	8.15771808749e-23
1.05391151244 	-0.0760030113011 	-1.54939966487e-23
1.05294783593 	-0.105207329896 	6.28671900828e-23
1.03625757236 	-0.148769113185 	5.27451050414e-22
0.975943831819 	-0.203862133815 	1.09745721556e-20
0.817396738543 	-0.21728316239 	-1.98530701346e-21
0.667430158026 	-0.0121104404622 	-2.66735029297e-21
0.803018205375 	0.197831724771 	-3.93879949938e-21
0.954495691575 	0.197539929109 	1.41499796888e-20
1.01805257765 	0.152738015243 	-9.73946970234e-22
1.04025166984 	0.113789503992 	-7.9699222929e-23
1.04630964265 	0.085409119683 	1.81566451355e-21
1.0455203727 	0.0643611190842 	6.98036591986e-22
1.04182830656 	0.0487292689822 	-2.7183258422e-22
1.03721958196 	0.0367535417877 	-2.72445125442e-22
1.03273168201 	0.0275004243271 	4.01454955611e-24
1.02890144902 	0.020110748327 	6.53109780146e-22
1.02578779672 	0.0139212158004 	-6.87346743844e-22
1.02344811106 	0.00889709853071 	-6.950077861e-22
1.02681905617 	-0.00780900802381 	-9.36545274951e-25
1.0297094221 	-0.0119930154734 	3.64254972814e-23
1.03373467615 	-0.0169823177321 	1.2528058626e-23
1.03913513962 	-0.022873383832 	9.80818572177e-23
1.04611905669 	-0.0301230877459 	1.24780997609e-22
1.05502886527 	-0.039837625064 	7.4968028461e-23
1.06608255867 	-0.0534957517981 	-5.15025660155e-22
1.07929512491 	-0.0741382989313 	-4.74946770857e-22
1.09392742605 	-0.107983403856 	8.7725612528e-22
1.10574359102 	-0.169531490925 	-1.93064024387e-21
1.0954292204 	-0.297342519663 	1.73236225397e-21
0.885421383029 	-0.604788445804 	7.43025153029e-22
0.849914697423 	0.563008207161 	1.7075467585e-21
1.05492414116 	0.295608705386 	-1.10749463226e-22
1.07921841318 	0.183722202652 	1.34980371681e-23
1.07972251672 	0.125656372017 	4.30116387275e-24
1.07331126635 	0.0900006021677 	2.92879550645e-22
1.06474763563 	0.0657387278477 	-1.4957927936e-22
1.05597317047 	0.0485934427653 	9.55465707592e-23
1.04793615485 	0.0360115344693 	1.52093426472e-22
1.04107904165 	0.0266840428201 	9.34609591782e-23
1.03556681938 	0.0193604797047 	-1.0827225231e-22
1.03134198333 	0.0133756867595 	2.86430156381e-23
1.02825495251 	0.00849313545633 	-1.654176346e-23
1.03083789387 	-0.00696628706397 	2.59745412066e-23
1.03414718929 	-0.0109291803195 	-6.74522436628e-23
1.03880935391 	-0.0152329289006 	-6.96515848231e-23
1.04527144639 	-0.0202741438097 	1.81022568832e-24
1.05380201942 	-0.026331985683 	-1.10226904968e-22
1.06534232583 	-0.0340879584482 	-7.74230051244e-24
1.0810278061 	-0.0446477805193 	-8.96971917672e-24
1.10291916651 	-0.0604315556101 	4.44500000238e-23
1.13527807533 	-0.0868892245969 	-7.07817188535e-22
1.18694674118 	-0.136199872624 	-3.21583785698e-22
1.28864005425 	-0.234559885099 	2.68693213243e-22
0.0373212896856 	0.00139564536282 	-1.59032079289e-21
1.22318539692 	0.260506718697 	-1.7784696086e-22
1.15511227245 	0.170767614762 	2.24763009294e-22
1.12401616951 	0.117674254385 	5.52227881888e-22
1.10230989879 	0.0833677017099 	-1.50770203569e-22
1.08475553523 	0.0600703922284 	-1.57835090746e-24
1.0702179676 	0.0438651011703 	1.21676551711e-24
1.05837871438 	0.0322479400243 	1.47563611336e-23
1.04907108803 	0.0237460312511 	-1.05783805233e-27
1.04184011939 	0.0171857996149 	-3.45818006311e-23
1.03653637409 	0.0119764831707 	-4.26025475111e-23
1.03276276596 	0.00744568340412 	4.22792507904e-23
1.03424440023 	-0.00619302939233 	-5.58054924216e-24
1.03788883343 	-0.00930423897167 	9.17817169569e-23
1.04306574591 	-0.0128950824497 	4.38633731151e-23
1.05016940237 	-0.016761556366 	1.6742857001e-23
1.05952922796 	-0.0211196924882 	1.90854390625e-22
1.07244792823 	-0.0259153243545 	2.80146666935e-22
1.09036759145 	-0.0312337313639 	-1.62147798997e-21
1.11681923914 	-0.037458806114 	4.78569556577e-22
1.15844400423 	-0.0456610902514 	2.11349172318e-21
1.22957970692 	-0.0583258188318 	-1.29543548584e-20
1.34302680401 	-0.0755100044285 	3.59389303475e-20
0.150856692824 	-0.0484597756921 	1.91491316019e-21
-6.60180675713e-05 	-0.016432242805 	-4.38690173845e-22
0.108599592836 	-0.00211060759859 	1.02404512655e-22
1.26016504041 	0.144513201228 	-2.46535839624e-20
1.20457441724 	0.124663835685 	7.63885322186e-21
1.16017351051 	0.0916798425682 	7.30396441793e-22
1.12758003239 	0.065721658665 	1.09628864127e-22
1.10219253089 	0.0472144366533 	9.422429258e-22
1.08254895966 	0.0344012534244 	-1.57268824426e-22
1.06725435228 	0.0253203065904 	-9.94416880868e-23
1.05578418864 	0.0187331703877 	-5.00984539659e-24
1.04712210206 	0.0136912058418 	3.39591909074e-23
1.04081637285 	0.00953078457608 	3.14365286781e-23
1.03644146308 	0.00616529668268 	2.61898215468e-23
1.03716475192 	-0.00505501698056 	3.09360995365e-23
1.04089039464 	-0.00748818212731 	-5.25547213018e-22
1.04635169925 	-0.0102841170608 	6.02210964602e-22
1.05367666839 	-0.0129551048852 	-4.81179335596e-24
1.06307008213 	-0.0155925526931 	-4.51164615909e-22
1.07553854064 	-0.01748022017 	-4.53540232558e-22
1.09239570273 	-0.0174965634694 	1.26866115285e-21
1.11650730072 	-0.0131417694569 	4.31706280883e-21
1.15384425371 	-0.000602332770542 	1.13141548607e-21
1.22039223958 	0.0265160901867 	4.26774316865e-21
1.31463805189 	0.0775833047337 	4.14999628868e-21
0.468935797631 	0.00569188008867 	-6.0207803894e-21
-0.179082933333 	-0.058663526747 	-3.41347311293e-21
0.116735946546 	0.00193680246406 	-4.23078664286e-21
1.20871429407 	0.080115305383 	-1.57629474326e-21
1.2310319512 	0.0802893191565 	-2.59945468513e-21
1.18467975223 	0.0565622548361 	-8.68803330179e-23
1.14539022387 	0.0398704933658 	-3.63309173604e-21
1.11448374614 	0.0286305969764 	-1.02016784418e-21
1.09106177743 	0.0212394825396 	2.45931625445e-22
1.07348506608 	0.0160341638606 	2.79897966713e-22
1.06045934145 	0.0121906460588 	2.01790422089e-24
1.05088647307 	0.00920447304569 	-1.94667333091e-22
1.04393010021 	0.00646212145046 	1.3300821345e-22
1.03930240871 	0.00432850942808 	8.43895217258e-23
1.03950538128 	-0.00378375118506 	-3.89610728502e-22
1.04325994502 	-0.00565659452095 	-1.02184231526e-21
1.04870544655 	-0.00764942122449 	-6.93310599595e-22
1.05591057415 	-0.00938090584514 	9.91010192778e-23
1.06462005696 	-0.0107914241262 	-8.41852489182e-22
1.07561291776 	-0.0108664955154 	5.44763923313e-22
1.08838589916 	-0.00765452316441 	-1.35105482607e-21
1.10385268652 	0.00317032523997 	-8.57995970606e-23
1.12707067241 	0.0312494529964 	-2.74101993087e-21
1.15274761276 	0.0878560693971 	-3.40880480893e-21
1.19348477124 	0.212229871729 	7.37744635652e-21
0.590186963063 	0.334623087478 	1.39870654293e-20
-0.174666420317 	0.326432409189 	5.5732445767e-22
0.221740538531 	0.186535461562 	6.49482771027e-21
1.18019783329 	0.0525893746651 	-1.27921137049e-21
1.26078804209 	0.0309859583457 	-2.05220368471e-21
1.20145175361 	0.0139231027039 	-1.6885665159e-21
1.15344688199 	0.00773244040117 	3.03633750614e-22
1.11964018676 	0.0063590123789 	1.54993029049e-21
1.09468151547 	0.00568901354501 	-5.5273643527e-22
1.07594488351 	0.00545140976411 	7.43745212924e-22
1.06254395152 	0.00491559245826 	-7.13912877842e-23
1.05277234697 	0.00424472034299 	2.94764253525e-22
1.04575896111 	0.00320972597498 	3.93433158952e-22
1.04110763556 	0.00238184647281 	3.82921164148e-23
1.04110623332 	-0.00248452929856 	1.09998688475e-21
1.04497538511 	-0.003761906365 	9.13398841895e-22
1.0502646156 	-0.00510845811289 	-3.62715936058e-22
1.05729194415 	-0.0062165189731 	-1.440656413e-22
1.06521454987 	-0.00711669766108 	4.68082742354e-22
1.0742283254 	-0.00692596562481 	1.6951868351e-22
1.08262531472 	-0.00408799974203 	-2.09643429896e-22
1.08623216353 	0.00455660387789 	5.71941979083e-22
1.08568323468 	0.0275788391809 	1.85508671517e-20
1.06513358129 	0.0831667318395 	1.44731775472e-21
1.00393691757 	0.21562099293 	3.33176295568e-22
0.442455605383 	0.421468318738 	2.31200942089e-21
-0.0501019984192 	0.487055635646 	-3.90611219025e-22
0.505789020951 	0.207165406073 	1.6301565586e-21
1.2307293687 	-0.0308534844564 	-1.98730836204e-21
1.28233601746 	-0.0441701083745 	2.70121900534e-21
1.20000183749 	-0.0380628923031 	2.90848674023e-20
1.14928207438 	-0.0253287731351 	5.56530758368e-22
1.11709192941 	-0.0180152731247 	2.82877150567e-21
1.09196393304 	-0.00974862628511 	-2.76302434746e-22
1.07441940999 	-0.00507236149777 	-5.78784855249e-22
1.06184680237 	-0.00217440056489 	9.78488933599e-23
1.05265351495 	-0.000540385695505 	2.28174005939e-22
1.04619101867 	0.000211959945182 	-3.81070662877e-22
1.04167309307 	0.000505563258011 	-2.66749507392e-22
1.04213231421 	-0.00113302918562 	-1.34853165039e-21
1.04602048724 	-0.00175466115697 	-5.24195847721e-22
1.05121388218 	-0.00255949885246 	-9.91280584788e-23
1.05823047065 	-0.00329566138858 	-3.49417846115e-22
1.06618937934 	-0.00419961463025 	2.22771181159e-22
1.07424443189 	-0.004202562601 	-9.60094021519e-22
1.07933864663 	-0.00627256819117 	-7.53929959446e-22
1.07888703789 	-0.00570728517843 	-6.2329234326e-22
1.06153693531 	-0.00142357352779 	1.14021051391e-21
1.01020441815 	0.00961651656185 	-1.81379456525e-22
0.83488100913 	0.09229847974 	3.15106235775e-22
0.230524291999 	0.287041392778 	3.5720374464e-22
0.180957004075 	0.165723734026 	-1.24480513402e-21
0.819676509392 	-0.119245588705 	5.93792618482e-21
1.25322041289 	-0.205532075836 	-4.08057190634e-21
1.25751452342 	-0.145946801047 	1.87337586401e-21
1.17101776907 	-0.093403617539 	4.2272679787e-21
1.13127778219 	-0.0591293314167 	-1.02247523947e-21
1.1019447649 	-0.0360900411653 	1.10735914236e-21
1.0831883578 	-0.0240381731812 	8.76388759685e-22
1.06953018075 	-0.0140342585517 	-1.39197824819e-21
1.05859628736 	-0.00805020046764 	2.26063257407e-22
1.05070349022 	-0.00450350741669 	5.79557052382e-23
1.04523188935 	-0.00235136926597 	4.28075632858e-22
1.04128042555 	-0.00110692461005 	1.67180010604e-22
1.04234467311 	0.000123447089663 	1.60552347876e-21
1.04644022131 	0.000421799875189 	-3.04846033851e-21
1.05164538067 	0.000169513071555 	1.67959909833e-21
1.05856001355 	0.000667636166497 	6.66656408873e-24
1.06694775214 	-0.00118556720271 	1.92999691243e-21
1.07580170577 	-0.00392668519369 	-4.69612444615e-22
1.08450167375 	-0.00817273942665 	-1.09634810469e-21
1.08749432159 	-0.0190584472665 	5.51643762597e-23
1.07585322686 	-0.040984931059 	1.04609424004e-22
1.0153659964 	-0.0828470432885 	-5.42423311195e-22
0.709972862984 	-0.0539266355786 	3.87985534856e-21
0.288059871984 	-0.0880054815959 	3.75886537945e-23
0.440155738332 	-0.280723397537 	-4.18391467639e-22
0.920353751778 	-0.414721415744 	1.28138250904e-22
1.17717005299 	-0.343554048789 	-9.45853055694e-21
1.15770187545 	-0.211871740503 	1.13841404239e-21
1.11665497544 	-0.126826303641 	1.25847673132e-21
1.09794887616 	-0.0790028525121 	1.28121445471e-22
1.08156397428 	-0.0487331691241 	-2.31483085135e-21
1.06939023852 	-0.0296863580747 	-6.33815418683e-22
1.06068634935 	-0.0189658859425 	1.64665298167e-21
1.05339384741 	-0.0118360661727 	-1.03709029606e-24
1.04745913804 	-0.00691348462483 	-1.1779447144e-21
1.0432631718 	-0.00406480849414 	1.77598847889e-21
1.04009208392 	-0.00213522081049 	-3.48121727233e-23
1.04192879606 	0.00153627345659 	-1.18091440584e-21
1.04617276156 	0.0028703478868 	3.87089183861e-23
1.05072655362 	0.00395774975279 	3.24267347861e-21
1.05829910135 	0.00338528007115 	-1.42959182299e-21
1.06816731972 	0.00307773584543 	1.94859846436e-21
1.07976709887 	0.0019884124218 	-1.96928656333e-21
1.09491547809 	-0.00482955991714 	2.14170503113e-22
1.10991783331 	-0.0192314247376 	3.3400535712e-24
1.13145353435 	-0.060748890305 	-1.89574062877e-22
1.08276137047 	-0.135578300513 	3.95931979598e-22
0.727785098917 	-0.252637797877 	-3.69565869687e-22
0.441092930166 	-0.40923729069 	6.53768112881e-23
0.552070577784 	-0.486642914448 	-2.62732794543e-22
0.873736529122 	-0.463687760978 	-1.80531180164e-21
1.02703590327 	-0.351455704865 	6.67113869717e-23
1.04191702665 	-0.213787171628 	-2.17840341223e-21
1.05197235588 	-0.12935152944 	1.69866659571e-21
1.05820082501 	-0.0801263636855 	2.17429944468e-23
1.05673783341 	-0.0501257771481 	3.60648685021e-22
1.05498145317 	-0.0307202546042 	-2.2385967661e-21
1.05064144607 	-0.0190011672968 	1.76396794029e-21
1.0470817631 	-0.0119071020856 	-3.63370319273e-22
1.04373214404 	-0.00752077435238 	-2.24187439314e-21
1.04094448548 	-0.00494192821606 	-2.80080407852e-23
1.0384767896 	-0.0026752825018 	3.77657484078e-22
1.04045503496 	0.0030936061893 	9.84630761491e-22
1.04486180749 	0.00451831320629 	-5.22419075924e-22
1.04933513687 	0.00569795269363 	-3.17320201397e-22
1.05726419363 	0.00831393759697 	3.26213677368e-22
1.06732215331 	0.00957943791231 	2.43930438615e-22
1.08307022565 	0.0124977652843 	7.70813799749e-22
1.10236390839 	0.00917193194864 	1.09316097454e-22
1.13286207492 	0.00492303627268 	-8.57209371652e-23
1.18952943168 	-0.021975815449 	2.00499649787e-23
1.1947551626 	-0.0668565820299 	1.80787406304e-22
0.914921697582 	-0.216789434702 	-1.0339874854e-21
0.553293716458 	-0.458046533168 	-1.047387902e-21
0.544348852255 	-0.50282305511 	-4.85329757475e-22
0.762737541976 	-0.398383216004 	4.25478212269e-22
0.887714353955 	-0.271454170168 	4.77496773739e-22
0.947730304072 	-0.164997933294 	-4.90049156691e-23
0.992296338874 	-0.100702782198 	-5.61236027245e-23
1.02388558165 	-0.0619564113246 	4.22464369888e-23
1.03508141434 	-0.0382076305915 	1.0194529926e-22
1.04198731684 	-0.0244151490457 	5.16751323836e-22
1.04331442707 	-0.0155697585375 	1.86323304175e-22
1.04190425344 	-0.0100018327182 	8.63137155592e-23
1.04012558955 	-0.0064565684352 	-2.5267382228e-22
1.03864201018 	-0.00458634744247 	-6.10170951644e-22
1.03686011429 	-0.00258104356404 	-3.47620798953e-22
1.0385948626 	0.00418827661511 	-2.66844329178e-21
1.0417282646 	0.00613030269214 	8.71865869469e-22
1.0469098954 	0.0089677788777 	-7.30188732678e-24
1.0543842821 	0.0122085290073 	6.48818873076e-23
1.06358837446 	0.0175802929817 	-4.75765318217e-22
1.07977866787 	0.0245746561397 	-3.00586101928e-22
1.09882438795 	0.0305990823486 	1.07083772748e-21
1.13160535809 	0.0485960080099 	3.12034546881e-23
1.21472145431 	0.0551385514 	5.70449547251e-23
1.23700281096 	0.0783289550949 	-3.09374570121e-22
1.08808432276 	0.0369152765973 	-2.62376297744e-21
0.779351617285 	-0.125537342631 	1.59996475738e-23
0.582611473064 	-0.27232746885 	-3.57639389655e-22
0.621751352605 	-0.28369301126 	-1.72547067244e-22
0.765346578015 	-0.155452199666 	7.23068067583e-23
0.87496700291 	-0.0676990171941 	-2.50224292488e-23
0.947778263453 	-0.0375877022701 	1.96320249921e-24
1.00280506731 	-0.0237900173385 	1.36898742201e-23
1.0249519934 	-0.0152957383571 	-2.46318533592e-23
1.03474869544 	-0.0121167174081 	8.24792170333e-23
1.03881673117 	-0.00926102291771 	-6.53835552886e-23
1.03940002027 	-0.00667289014061 	2.79141129861e-23
1.03832851009 	-0.0048547469712 	2.3569700222e-23
1.0365370028 	-0.00342968286245 	3.67792212991e-22
1.03527210702 	-0.00258434566666 	9.38346394051e-23
1.03611105615 	0.00421503287282 	-5.59372527005e-22
1.03889102326 	0.00722409284808 	-5.97575286943e-22
1.04324750746 	0.0110272649103 	1.76113231827e-22
1.04838735134 	0.015977697418 	-1.56320508845e-23
1.05621906602 	0.0232697028977 	1.69786859612e-22
1.0679872749 	0.0333794506308 	4.78966180047e-22
1.08193066467 	0.0492603035064 	4.1370052145e-23
1.10916075984 	0.0734972427467 	-7.61270925532e-22
1.15964433023 	0.119719258271 	8.77109964611e-22
1.18377161561 	0.190700426474 	5.74088776944e-22
1.10455577019 	0.241065382357 	-9.94161518105e-22
0.911251873706 	0.210579165524 	0
0.712616949849 	0.12129855781 	8.79348802378e-37
0.640458904133 	0.0423077102334 	1.39406034567e-25
0.70062040303 	0.0252430485273 	4.19901113003e-22
0.831787072307 	0.0439152249736 	-3.60825571654e-22
0.942831303788 	0.0359929611632 	-3.5940397836e-22
0.997108935458 	0.0175357831873 	5.12684468018e-22
1.02319552454 	0.00794597962709 	-2.85024246434e-23
1.03421951362 	0.00244152714185 	-1.90469563206e-22
1.03786800937 	-0.000923247843225 	3.30469829741e-23
1.03858564189 	-0.00224903121039 	4.92237061176e-23
1.03776133312 	-0.00249159555629 	7.1523667501e-23
1.03603435382 	-0.00214463527026 	-1.67143767333e-22
1.03442027234 	-0.00139917300135 	-1.60531058963e-22
1.0336992222 	0.00474596907985 	0
1.03573876483 	0.0077728025131 	0
1.03872283488 	0.01188971648 	0
1.04222764637 	0.0176372231005 	0
1.04705702135 	0.0255657472424 	0
1.05356843864 	0.0381356879786 	0
1.06096733557 	0.0571682664285 	0
1.07235657107 	0.0850278721534 	0
1.09287766604 	0.136289005277 	0
1.10467250883 	0.218629843593 	0
1.0606781142 	0.301441517387 	0
0.925668967596 	0.335884868686 	0
0.764569374115 	0.316999841788 	0
0.692435436993 	0.268817371863 	0
0.730331257111 	0.221676780633 	0
0.856914933383 	0.175366962957 	0
0.979560190376 	0.117054524751 	0
1.02771415877 	0.0627839498139 	0
1.04117495499 	0.0292163618096 	0
1.04414869539 	0.0139693353546 	0
1.04322481649 	0.00495964044068 	0
1.04119108034 	0.00058810212581 	0
1.03870344613 	-0.00115796746531 	0
1.03615539871 	-0.00157087284287 	0
1.03403221905 	-0.00116543029566 	0
1.03117983987 	0.00446327930703 	0
1.03238430848 	0.0072074102747 	0
1.0339562469 	0.0109385995804 	0
1.0356849473 	0.0164229628543 	0
1.03713057969 	0.0241184694576 	0
1.03806452228 	0.0365665576943 	0
1.03832824786 	0.0558908368637 	0
1.0348487786 	0.084442221058 	0
1.02718121646 	0.132861575282 	0
1.01381895508 	0.208082776905 	0
0.982391614937 	0.303503781509 	0
0.889333891474 	0.375753835549 	0
0.773938650407 	0.39159485743 	0
0.732878036431 	0.365336693936 	0
0.787326530691 	0.314561072003 	0
0.931294463303 	0.234173597045 	0
1.05714412581 	0.142618151244 	0
1.08535638169 	0.0728617562166 	0
1.07280872648 	0.0344377696356 	0
1.05943710189 	0.0165368429816 	0
1.05094668803 	0.00582593496368 	0
1.04468584396 	0.00121529679267 	0
1.03979537231 	-0.000865872854403 	0
1.03615726704 	-0.00139879787837 	0
1.03354855357 	-0.00117997774039 	0
1.02890883954 	0.00356147577902 	0
1.02950401834 	0.00564729853947 	0
1.02988956256 	0.00833264770965 	0
1.02972835609 	0.0123138465424 	0
1.02776363807 	0.0183683951039 	0
1.02309155745 	0.0279781220742 	0
1.01437114704 	0.0441194846622 	0
0.996962900963 	0.0702836629142 	0
0.968618953543 	0.11142146672 	0
0.928850834944 	0.171775013106 	0
0.886929332698 	0.258855767583 	0
0.827839946083 	0.342689633617 	0
0.768519549232 	0.371622732125 	0
0.767468574208 	0.345792964395 	0
0.861097787214 	0.272719626983 	0
1.03250771541 	0.165285334776 	0
1.14185593078 	0.0779453426963 	0
1.13476531818 	0.0341175452186 	0
1.09728454492 	0.0162745791728 	0
1.07206689752 	0.00674589816528 	0
1.05742838061 	0.000752682326417 	0
1.04740098379 	-0.000963486667935 	0
1.04086054906 	-0.00200903619103 	0
1.03620229741 	-0.00190992407976 	0
1.03317664342 	-0.0015317760021 	0
1.02720158452 	0.00214601839528 	0
1.02746330082 	0.00323528946598 	0
1.02710354326 	0.00437904433037 	0
1.02547555205 	0.00577953134332 	0
1.02091704216 	0.00795797073682 	0
1.01171842835 	0.0110857978679 	0
0.994811706347 	0.0175527844067 	0
0.966953071316 	0.0299188688844 	0
0.924646698273 	0.0515941419627 	0
0.863976956124 	0.0871492253392 	0
0.808669771458 	0.141326182375 	0
0.77440966421 	0.197843879692 	0
0.773510192444 	0.217492794359 	0
0.83509214333 	0.178892955593 	0
0.97156096093 	0.0903709298687 	0
1.12948846289 	0.00483938314409 	0
1.1878047012 	-0.0256046554958 	0
1.14754486495 	-0.0208405011507 	0
1.10171454509 	-0.0128438616222 	0
1.07561384466 	-0.00959233595669 	0
1.05913922201 	-0.00798291724738 	0
1.04774541282 	-0.00571463364103 	0
1.04091499623 	-0.00464432988347 	0
1.03575991868 	-0.00324041556319 	0
1.03256147281 	-0.00221440680464 	0
1.02652040221 	0.000605200807219 	0
1.02690421338 	0.000570780383001 	0
1.02675344471 	-6.28197452093e-05 	0
1.02540870604 	-0.00170805623207 	0
1.0212252296 	-0.00494406299411 	0
1.01212126338 	-0.0110313825884 	0
0.993794393533 	-0.0205631784282 	0
0.961982865328 	-0.0337328206422 	0
0.909949551811 	-0.0427481206997 	0
0.836834747893 	-0.0413144866269 	0
0.778568264589 	-0.030304128482 	0
0.759925294718 	-0.025071117099 	0
0.79850173937 	-0.0351143567529 	0
0.907982783369 	-0.0699545852637 	0
1.04735232645 	-0.119770716773 	0
1.15256263832 	-0.131220778696 	0
1.16842298459 	-0.0967201407793 	0
1.12484533303 	-0.0593783366753 	0
1.0885269569 	-0.0365734632505 	0
1.06881612139 	-0.0240515653457 	0
1.05479081719 	-0.016357400763 	0
1.04477359421 	-0.0109596648094 	0
1.03881537318 	-0.0076592638973 	0
1.03406811829 	-0.00490649517368 	0
1.03117923505 	-0.00305543566068 	0
1.02685597895 	-0.000463150700232 	0
1.02800030532 	-0.00132793936028 	0
1.02923926313 	-0.00340871393183 	0
1.03035883159 	-0.0075082916657 	0
1.03024720885 	-0.0150814368146 	0
1.02771053505 	-0.0288262230758 	0
1.01778609834 	-0.0525279510129 	0
0.989614309371 	-0.0904121260003 	0
0.930811546047 	-0.130157385981 	0
0.849327045397 	-0.159608230072 	0
0.791534350693 	-0.181505348591 	0
0.77952592566 	-0.207424558444 	0
0.822582185842 	-0.232076323606 	0
0.927490459001 	-0.244305704029 	0
1.03761575097 	-0.234345735204 	0
1.10454852662 	-0.18910976064 	0
1.11294200558 	-0.126747618903 	0
1.0870451943 	-0.0785051139853 	0
1.06701216417 	-0.050246673403 	0
1.05544131964 	-0.0327760731118 	0
1.04606299984 	-0.0214243390379 	0
1.0390643689 	-0.0141638125548 	0
1.03474335251 	-0.00944851393207 	0
1.03119111901 	-0.00597377547913 	0
1.02903515447 	-0.00363651141506 	0
1.02772157101 	-0.000826856519964 	0
1.03001375018 	-0.00195592669378 	0
1.0332362776 	-0.00452053086157 	0
1.03770870275 	-0.0093368314105 	0
1.04344059207 	-0.0176728985481 	0
1.05103125421 	-0.033053629127 	0
1.05714568682 	-0.0593595609887 	0
1.04031821948 	-0.106958931285 	0
0.978782013145 	-0.168233786652 	0
0.888211216775 	-0.220602236202 	0
0.825413470401 	-0.260661247622 	0
0.809522927015 	-0.293331182217 	0
0.835184209583 	-0.315487593388 	0
0.908500335442 	-0.313413954441 	0
0.985215184435 	-0.271401061661 	0
1.03445155682 	-0.203335525129 	0
1.05143712351 	-0.136689996421 	0
1.04619595035 	-0.0870898211531 	0
1.04207661658 	-0.0560568967708 	0
1.03915360068 	-0.0355225533353 	0
1.03546593064 	-0.0223666968743 	0
1.03232455446 	-0.0143210310305 	0
1.03010118348 	-0.00922746056185 	0
1.02803231667 	-0.00579324813901 	0
1.02669455968 	-0.00350728329834 	0
1.02856201819 	-0.000617361898239 	0
1.03183376248 	-0.00149454152897 	0
1.0367155895 	-0.00332181920778 	0
1.04375642649 	-0.00675192892105 	0
1.05432441881 	-0.0121492728067 	0
1.07026589982 	-0.0225753799697 	0
1.09232264979 	-0.0390948893593 	0
1.09832403094 	-0.0730391431669 	0
1.04595476284 	-0.136996367854 	0
0.942326806992 	-0.210127894282 	0
0.862045520524 	-0.268130853284 	0
0.833726766792 	-0.303802383954 	0
0.840174467527 	-0.32067686952 	0
0.877703813257 	-0.307393874264 	0
0.92093434402 	-0.253000977648 	0
0.96301449964 	-0.184148748171 	0
0.993944243097 	-0.12379830102 	0
1.00593932381 	-0.079574626777 	0
1.01528758725 	-0.0502915069765 	0
1.0218079243 	-0.0303430998241 	0
1.02478096005 	-0.0183454138256 	0
1.02595071974 	-0.0112644940785 	0
1.0260414001 	-0.00702017282788 	0
1.02541480528 	-0.00430160133382 	0
1.02477496214 	-0.00255840374842 	0
1.02896468978 	6.01621915627e-05 	0
1.03264644371 	-7.18678729862e-05 	0
1.03834134484 	-0.000272228341779 	0
1.04645828057 	-0.00104339528894 	0
1.05924318031 	-0.00179313224343 	0
1.07840337782 	-0.00411739847583 	0
1.10763013488 	-0.00614811259618 	0
1.13695636184 	-0.0123255898513 	0
1.1152052658 	-0.0443915215023 	0
1.02095201684 	-0.108712168468 	0
0.919801148689 	-0.182949292273 	0
0.860386280049 	-0.229984652882 	0
0.83664772552 	-0.242418213532 	0
0.839251209211 	-0.218606623644 	0
0.859836916307 	-0.168676236751 	0
0.902157382735 	-0.118118048174 	0
0.946608590497 	-0.0736163083885 	0
0.973313122351 	-0.0438515222334 	0
0.992932643085 	-0.0258576093933 	0
1.00766032798 	-0.0142913363106 	0
1.01667007603 	-0.0083687397209 	0
1.0213745265 	-0.00506173193392 	0
1.02331459676 	-0.00320557699494 	0
1.02376206096 	-0.00195723692226 	0
1.02362189395 	-0.00118235785576 	0
1.02866008967 	0.00118633593616 	0
1.03217584093 	0.0020501258021 	0
1.03777957045 	0.00355447490244 	0
1.04555711273 	0.00546889923159 	0
1.05786940479 	0.0089707212196 	0
1.07546907861 	0.014003562758 	0
1.10162509052 	0.0235764097435 	0
1.13646596798 	0.0405060612055 	0
1.14264357947 	0.0536328434181 	0
1.08497668064 	0.0374802854664 	0
0.988121519317 	-0.00983797186079 	0
0.897049794239 	-0.0468352420067 	0
0.835318438807 	-0.0563107745473 	0
0.811356578429 	-0.0460590755493 	0
0.823162090204 	-0.0280050531539 	0
0.866571862931 	-0.00989963885771 	0
0.919617915521 	0.00869991991893 	0
0.958523373812 	0.0162247305581 	0
0.985338067567 	0.0141664757331 	0
1.00419859026 	0.00979456717052 	0
1.01538070359 	0.00566475619443 	0
1.02077434385 	0.00305157380785 	0
1.02290947604 	0.0014521392671 	0
1.02346853234 	0.000656679308755 	0
1.02337561456 	0.000225561878983 	0
1.02755691455 	0.00231687464814 	0
1.03050057683 	0.00397276033857 	0
1.03520081908 	0.00671217859745 	0
1.0414837032 	0.0107113188434 	0
1.05127644808 	0.017383792079 	0
1.06454782686 	0.0278127486785 	0
1.08205598747 	0.0446224160775 	0
1.10645156809 	0.0737585431441 	0
1.11904200407 	0.112877818425 	0
1.08780223192 	0.140433754277 	0
1.00986347268 	0.14575231941 	0
0.915010842112 	0.14343541765 	0
0.842281380963 	0.138231630351 	0
0.813928117767 	0.126500690761 	0
0.823214552157 	0.112231025195 	0
0.862952280439 	0.101655476823 	0
0.919734103533 	0.0931110492423 	0
0.967670362082 	0.0766990501872 	0
0.998803560951 	0.0525879875141 	0
1.01598460874 	0.0316069206461 	0
1.02317929981 	0.0181962719264 	0
1.02537029148 	0.0102575835177 	0
1.02546609867 	0.0056012317463 	0
1.02485134427 	0.00294710984901 	0
1.02410477046 	0.00146129343087 	0
1.02582290139 	0.00272643118466 	0
1.02787028786 	0.00473281387145 	0
1.03101499999 	0.00810048741125 	0
1.03490505689 	0.013338124183 	0
1.04071099821 	0.0220655803628 	0
1.0481064098 	0.0360937485562 	0
1.05560626528 	0.0576758622169 	0
1.06530108505 	0.0912306999586 	0
1.07265811953 	0.137550015494 	0
1.04969563284 	0.186649626472 	0
0.984903542508 	0.223603175485 	0
0.906260654032 	0.24367090176 	0
0.851259776942 	0.243373746719 	0
0.834851606934 	0.226874694498 	0
0.845837410075 	0.202942536039 	0
0.884486620108 	0.175919782859 	0
0.944800325835 	0.147314352898 	0
0.999237664303 	0.110203937823 	0
1.03041257125 	0.0699852951869 	0
1.03907978587 	0.0407188637417 	0
1.03713960374 	0.023609893914 	0
1.03355943556 	0.0136237264113 	0
1.03023497286 	0.00769986079982 	0
1.02761053757 	0.00420722962693 	0
1.02567273496 	0.00219575007419 	0
1.02397931271 	0.00223943873937 	0
1.02501666008 	0.00406077580578 	0
1.02633843142 	0.00722743159619 	0
1.02732843732 	0.0123294046888 	0
1.02821531541 	0.021117637705 	0
1.02855347705 	0.0356972220883 	0
1.02658419735 	0.0586080801504 	0
1.02415768269 	0.0906720455194 	0
1.02118206347 	0.134394490238 	0
0.995947265784 	0.189503966144 	0
0.945242458995 	0.239208438716 	0
0.891382424457 	0.268766364689 	0
0.858183547104 	0.272124287791 	0
0.855667710834 	0.258374743126 	0
0.873948989998 	0.234180728665 	0
0.918307030839 	0.198589288819 	0
0.985982986944 	0.155027532519 	0
1.04525045456 	0.102725386712 	0