1.01406640196 	-0.00823437249607 	-2.04674518944e-21
1.01513525084 	-0.0128417968856 	-1.5532407683e-21
1.01636123633 	-0.0179537115739 	5.66649084431e-22
1.01769788231 	-0.0239644287017 	-4.07717954027e-25
1.01878082279 	-0.0309182667749 	-6.28123353999e-22
1.0190963192 	-0.0391647522653 	-3.06665844615e-22
1.01759565947 	-0.048382932809 	-3.47971843216e-22
1.01237179452 	-0.0571849262592 	-1.69453769148e-21
1.00195877725 	-0.0674157160763 	2.37306567178e-20
0.982215969976 	-0.071458543925 	1.72206408285e-21
0.954731515332 	-0.0638867725144 	4.07060708066e-23
0.927258292275 	-0.0368151316699 	2.06324928997e-21
0.916423766606 	0.00775674417339 	-3.62809873901e-24
0.93272917409 	0.0507006353503 	2.4146883372e-22
0.963585026787 	0.0737939246964 	-1.46202220878e-21
0.991833944066 	0.077117779183 	1.68067031092e-21
1.01052262838 	0.0696072540307 	1.59470385625e-20
1.01922541588 	0.0571450858899 	-1.21747121035e-21
1.02256801546 	0.0471787383929 	-1.15459061427e-21
1.02252643925 	0.0375119697408 	2.38655868313e-22
1.02100539353 	0.0292879286859 	4.87960645855e-22
1.01899987855 	0.0224930233336 	7.60237705918e-24
1.01700042292 	0.0167914411468 	-2.65490904351e-22
1.01535069955 	0.0119523909983 	5.66233666997e-22
1.0140130472 	0.00761260959021 	5.69284761887e-22
1.01867146322 	-0.00886468778491 	7.25357209292e-22
1.02026905491 	-0.0138339391344 	1.4432276836e-21
1.02232649749 	-0.0196748022744 	9.35292305133e-22
1.02470937746 	-0.0265742650393 	-1.86911264956e-22
1.02715577586 	-0.0348989908756 	9.27668727008e-22
1.02896574866 	-0.0451991472637 	-4.0646136149e-22
1.02904821443 	-0.0577512947488 	7.27338969426e-22
1.02549994014 	-0.0732633488338 	2.30832861785e-22
1.01389083222 	-0.0912244386398 	-7.17881836942e-22
0.988633823702 	-0.107703706753 	-3.03336356803e-21
0.941374173445 	-0.112725306093 	-4.15493902764e-21
0.877010158321 	-0.0785053797108 	1.04080248948e-20
0.844858915539 	0.0105941835836 	1.67971578357e-22
0.887420873987 	0.0956227104963 	9.4144794444e-21
0.956251281938 	0.121835412957 	-7.64603187439e-21
1.00308395473 	0.109943258467 	-1.76047588066e-21
1.025692473 	0.0892194227163 	-3.78883229275e-22
1.03364419745 	0.069110440127 	-2.17251711804e-22
1.03451711603 	0.0532240773155 	-3.71035767458e-22
1.03229568398 	0.0410282936009 	2.00057040391e-22
1.02893793866 	0.0314349430752 	-5.02847665251e-22
1.02550287711 	0.0238799562191 	8.31120450893e-23
1.02249117586 	0.0177227360789 	-2.19306820723e-22
1.0200540175 	0.0124883469497 	-4.55341186385e-22
1.01824705152 	0.00798842702631 	-1.03261210268e-22
1.02347797464 	-0.0090724348319 	1.46447082054e-23
1.02580325259 	-0.0140924845624 	6.83681287063e-22
1.02887373671 	-0.0203281684824 	-6.41999619653e-22
1.03264240825 	-0.0277566926766 	-3.59265551019e-24
1.03704455565 	-0.0370146691906 	2.85179434853e-22
1.04151267281 	-0.0489849296532 	2.79321910379e-22
1.04503625375 	-0.0646187863504 	-5.92543023299e-22
1.04562861083 	-0.085549312872 	-1.48553979089e-21
1.03933694276 	-0.113812913758 	-1.48848821421e-22
1.01679812637 	-0.152721264704 	1.16971429193e-21
0.952327117808 	-0.197174252546 	1.64053356648e-20
0.798796385327 	-0.195139473168 	-2.09417574596e-21
0.667645756208 	0.0187917573213 	-2.66018297221e-21
0.821848155485 	0.219669329717 	-3.59540348078e-21
0.978070045179 	0.203975927871 	9.46175370011e-21
1.03738538204 	0.148672087076 	-4.35694099099e-22
1.05373778846 	0.1051593131 	9.85798228902e-24
1.05449663377 	0.0758958220864 	7.09753917442e-23
1.04980306035 	0.0558574910934 	-7.21768029628e-23
1.04366231773 	0.0419341725813 	5.07970710431e-23
1.03762742392 	0.031718787439 	-6.16453457652e-23
1.03240231114 	0.0239441083251 	-9.69591770788e-25
1.02819537218 	0.0177023552519 	5.38744065192e-23
1.02491394619 	0.0124009973891 	-1.10466410248e-22
1.0225390134 	0.00800995064511 	-1.4400360203e-22
1.02833346214 	-0.00869984616716 	6.4237219856e-23
1.03140675529 	-0.013613178097 	-2.47716763477e-23
1.03558978222 	-0.0196621311084 	1.09913484706e-22
1.04105016655 	-0.0270676808093 	-9.51404065506e-23
1.04778694707 	-0.0364531908404 	-1.3221409401e-22
1.05567055855 	-0.0490913037076 	-9.8754934495e-23
1.06422474393 	-0.0662959955501 	1.15309272882e-22
1.07253758169 	-0.0904601942089 	-2.42758252286e-22
1.07879028255 	-0.126115217257 	2.11018186766e-23
1.07821978338 	-0.184295171329 	-3.82802494742e-22
1.05341578233 	-0.297906119686 	2.70993798403e-23
0.837697392366 	-0.568907919066 	-2.48468386451e-21
0.897871304113 	0.597776308819 	2.53630971638e-22
1.0966211262 	0.294566705373 	-1.88778953554e-21
1.10641125094 	0.168835330089 	-2.06914069456e-21
1.09460928635 	0.107570129146 	-6.28744147881e-22
1.07994415709 	0.0737823452574 	8.86884900557e-22
1.06654103914 	0.0530476749554 	4.51203573795e-22
1.05531810056 	0.0394302939624 	-7.27597967765e-23
1.04627483566 	0.0297482079152 	-1.27498749968e-22
1.03917980878 	0.0225414829355 	-8.96073120099e-23
1.03372904499 	0.0167137764474 	-1.67695718225e-23
1.02966175701 	0.0117821970569 	-3.40223441333e-23
1.02675666469 	0.00761953991186 	4.93115461078e-24
1.03291273181 	-0.00765010401116 	-3.85821490538e-23
1.0366793934 	-0.0122514761522 	4.13816079925e-23
1.04195420001 	-0.0175649632358 	3.25563870681e-23
1.04914653207 	-0.0242625842403 	-8.47955259295e-26
1.05834149416 	-0.0328888619312 	-1.62819617866e-23
1.0699915542 	-0.0446615905821 	-1.92518008159e-24
1.0842611193 	-0.0610156232657 	-3.98931463898e-24
1.10142773988 	-0.0842438307821 	2.00357159275e-23
1.12286282605 	-0.118325984911 	-3.76447059599e-22
1.15428334248 	-0.17086330106 	-1.84206684788e-22
1.22521095772 	-0.26068781372 	1.8865503221e-22
0.0434950666557 	0.00150659589341 	-2.0921600334e-21
1.2857620388 	0.233977301033 	-2.67034924968e-22
1.18718405141 	0.136121211363 	3.79749003449e-22
1.13608257035 	0.0864382251946 	1.08925488533e-21
1.10368026086 	0.0597793594293 	-3.30917026946e-22
1.08148690249 	0.0438852528272 	-3.99679140804e-24
1.06559450534 	0.0334057552454 	8.63583002987e-24
1.05388251703 	0.0257624273704 	1.03558666979e-22
1.04523110823 	0.0198109113705 	-3.2667066613e-25
1.03872548314 	0.0148817838823 	6.6465072758e-23
1.03403129261 	0.0106730707957 	6.35028676512e-23
1.03071186031 	0.00677555825333 	-2.63179303907e-23
1.03666345704 	-0.00639205990711 	1.50290839343e-24
1.04106819037 	-0.00982437289511 	-3.01891495292e-23
1.04737330097 	-0.0141231571271 	-3.25387914092e-23
1.05603215285 	-0.0193591174233 	7.5067717295e-24
1.06741587694 	-0.0261602433095 	7.66864771717e-23
1.08252066096 	-0.0355401845746 	1.60382185113e-22
1.10185005125 	-0.0486682443679 	-9.39210231471e-22
1.12659314501 	-0.0672833095393 	3.94358775658e-22
1.15835855812 	-0.092935922165 	1.3293730248e-21
1.20213419448 	-0.124108100487 	-8.3001049769e-21
1.25734249204 	-0.139140212556 	2.3667320112e-20
0.0951201709297 	0.00387093725129 	1.38543040342e-21
-0.000578309311582 	0.0173787584415 	-4.4946103399e-22
0.169725657938 	0.0447029730724 	-4.1867565139e-24
1.34338931897 	0.0800020002187 	-3.78062291464e-20
1.23100118613 	0.0593229929122 	1.19131084178e-20
1.15987733501 	0.0449510648507 	1.12025388824e-21
1.11778367064 	0.0362872424151 	3.74513647215e-22
1.09077189177 	0.0300407732739 	1.61284378835e-21
1.07256334427 	0.0248973525256 	-2.74952948298e-22
1.05945038545 	0.0203380215244 	-2.43537915109e-22
1.04998084536 	0.0161786098925 	-1.0967226281e-23
1.04285919272 	0.0124806894936 	-4.50334910523e-23
1.03767279565 	0.00902054881803 	-8.99408363601e-23
1.03404871579 	0.00597035370463 	-1.72723067784e-22
1.03961681654 	-0.0045257499038 	-1.40283342612e-23
1.04430253604 	-0.00673445731056 	-1.36137816666e-22
1.0513106071 	-0.00963833231172 	2.00716929008e-22
1.06095561973 	-0.0128507241899 	-1.88514903344e-24
1.07395738121 	-0.0170207996071 	-2.82062318888e-22
1.09145318304 	-0.0226658515354 	-3.00258488643e-22
1.11462562523 	-0.0306946579611 	9.01809443984e-22
1.14464042972 	-0.042555409131 	3.28426505578e-21
1.18216469314 	-0.0595506876581 	7.70500787668e-22
1.22501452673 	-0.0816000505167 	2.85688069989e-21
1.19496105837 	-0.0729639948809 	2.10144278195e-21
0.0907442200202 	0.0276708713497 	-3.22183476233e-21
-0.168417225928 	0.102147280689 	-3.56364162461e-21
0.490230820721 	0.0142065327453 	-8.69889929229e-21
1.3226022755 	-0.0703111071862 	-3.2054439572e-21
1.22518804865 	-0.0262028810426 	-3.80198978509e-21
1.1564164554 	-0.00127929030635 	-1.35856105819e-22
1.11752826025 	0.0109887887768 	-4.74851276188e-21
1.09251989926 	0.0156928345617 	-1.42791691769e-21
1.07530980926 	0.0161256718627 	3.68637613195e-22
1.06271588797 	0.0146346692391 	4.44272613696e-22
1.05325929379 	0.0123137268332 	5.23662440288e-24
1.04598280655 	0.00985022708379 	-5.93727566132e-22
1.04056226419 	0.00721591499018 	5.22270046243e-22
1.03688199516 	0.00485222147237 	4.60910622244e-22
1.04151303399 	-0.00251280831502 	-1.34735523681e-22
1.04624702438 	-0.0034251611516 	-4.39556187199e-22
1.0533811348 	-0.00460337883728 	-2.89351277647e-22
1.06332596931 	-0.00549607559651 	6.41975847587e-23
1.07685814892 	-0.00639286354968 	-6.57152607957e-22
1.09569205246 	-0.00726396874867 	4.63123598382e-22
1.12064760424 	-0.00886446395902 	-1.15414053131e-21
1.15374749306 	-0.0116831623495 	-8.95983745194e-23
1.19957442394 	-0.0203915662679 	-2.47632848096e-21
1.25279063093 	-0.0395912475881 	-2.86661320043e-21
1.14864605844 	-0.0569137468574 	4.27296126693e-21
0.1598073926 	-0.165721413025 	6.16680156346e-21
-0.163397710401 	-0.28783300819 	5.56273358355e-22
0.642729577019 	-0.317188559152 	1.3879168405e-20
1.21344476384 	-0.212471092186 	-2.43731185089e-21
1.16016250182 	-0.0925277693814 	-2.54816786864e-21
1.13015471015 	-0.0359463128966 	-1.90646033214e-21
1.10428161401 	-0.00668775272906 	2.93478332832e-22
1.08786684536 	0.00521313903069 	1.80925363746e-21
1.07482832233 	0.00930022424117 	-6.51598492072e-22
1.06383490888 	0.00979771805875 	9.51900622877e-22
1.05521057798 	0.00877340158772 	-1.09726448821e-22
1.04814765044 	0.00726759871109 	7.08178750761e-22
1.04281042916 	0.00541839238901 	8.76118056317e-22
1.03913091041 	0.00363280075928 	-2.87780580469e-23
1.0421248738 	-0.000568637037186 	4.36286477643e-22
1.04676504073 	-0.000306346664498 	4.400694973e-22
1.05342143612 	0.000355307411253 	-2.43311339858e-22
1.06290160223 	0.00183706597133 	-8.41149709943e-23
1.07581219778 	0.00438858218501 	3.0803787751e-22
1.09370726791 	0.00844328937 	1.68460347008e-22
1.1191831378 	0.0157002567619 	-2.35581617207e-22
1.15196308183 	0.0209158049945 	7.57066077341e-22
1.20181731706 	0.0298037313337 	2.82818069182e-20
1.28085738361 	0.0276380222667 	2.32540682305e-21
1.19866147806 	0.0031128372602 	8.7044094873e-22
0.425144085657 	-0.250661026755 	3.97984022185e-21
-0.0486715553799 	-0.507897679639 	-3.07941602064e-22
0.525788730769 	-0.424276737619 	1.4900251631e-21
1.0289341136 	-0.233746573425 	-1.15180966221e-21
1.07019055444 	-0.0964277309979 	1.84501140256e-21
1.08599012213 	-0.0358324237542 	1.95151561224e-20
1.08472002979 	-0.00930001027746 	4.44442028667e-22
1.08081314753 	0.00146022885149 	2.44201761137e-21
1.07267470577 	0.00541910468525 	-2.75683750361e-22
1.06393759559 	0.00629692714652 	-7.80143428549e-22
1.05629841559 	0.00579051246931 	1.64051903414e-22
1.04952996055 	0.00487006210677 	3.40089375929e-22
1.04442715753 	0.00362340077769 	-7.67939467192e-22
1.04067656559 	0.00239931788902 	-6.62344248861e-22
1.04174831173 	0.0011501047104 	-6.5793781827e-22
1.04585411791 	0.00240912588077 	-2.66523228335e-22
1.05155310401 	0.00456650075505 	-6.35924330927e-23
1.05982613933 	0.00808265743778 	-2.55102213944e-22
1.07129864858 	0.0139053662212 	2.38054543953e-22
1.08591968143 	0.0235389750832 	-8.83788442433e-22
1.1056408801 	0.0346487503459 	-8.98144539165e-22
1.13695738338 	0.0559836800148 	-1.32288660417e-21
1.17889742888 	0.0867287665982 	4.23702694323e-21
1.27068836021 	0.130170300094 	7.49384817752e-22
1.24619888819 	0.169723635814 	-8.20028783484e-21
0.760719290846 	0.0418874579645 	-6.55166067535e-21
0.14964702258 	-0.26008028285 	-1.08461765666e-21
0.285627996837 	-0.332872257717 	-1.03929095681e-22
0.861370949111 	-0.118000524658 	-1.3303749539e-22
1.00501421299 	-0.028852026665 	1.48431756266e-22
1.05596178759 	-0.00794643219996 	1.23259027793e-21
1.07416435609 	0.00125948921285 	-5.11100802464e-22
1.07573683379 	0.0042231030312 	8.99247250292e-22
1.07185476789 	0.00334855264329 	9.67147175524e-22
1.06442909536 	0.00387087599908 	-1.4072493566e-21
1.05702641048 	0.00321445761357 	3.10194996598e-22
1.05037523188 	0.00255720960474 	8.8844981601e-23
1.04542835745 	0.00177510075399 	8.24241499192e-22
1.04168403323 	0.001160667121 	3.73396669798e-22
1.04050012034 	0.00228710678742 	7.98490917917e-22
1.04383606612 	0.00433127906069 	-1.77717355599e-21
1.04829745146 	0.00725770535679 	1.11424835753e-21
1.05456085563 	0.0123526523647 	5.88993246468e-24
1.06245810881 	0.0195041056604 	2.01907934919e-21
1.07226938535 	0.0303154273768 	-4.93463397947e-22
1.08599251228 	0.0492797163434 	-1.99692003335e-21
1.10541480852 	0.0792755469065 	1.09710242641e-22
1.12805194817 	0.125683561425 	1.49930993835e-21
1.18056276697 	0.207892368305 	1.46069313452e-21
1.19185466367 	0.327844299917 	-9.79816612609e-21
0.913008836266 	0.376876207013 	1.42493983061e-22
0.417054483425 	0.207979620881 	-4.42173633575e-22
0.289467705759 	0.00986687998001 	6.02336666222e-23
0.729658358229 	0.0209233752367 	3.87334119506e-21
0.9994322538 	0.0667720441045 	-4.06858510597e-22
1.0619956077 	0.0342904739857 	5.04815487357e-23
1.07957532068 	0.0172135752812 	6.95088575394e-23
1.07953598131 	0.00775646063679 	-1.2400123034e-21
1.07285894063 	0.00407464452925 	-5.83829096151e-22
1.06503706843 	0.00161268059351 	1.53606293274e-21
1.05738478462 	-0.00018991186987 	-1.47121984498e-24
1.05082153091 	0.000144319679897 	-1.7660624838e-21
1.04587284895 	-0.000201388248061 	3.01941264045e-21
1.04194350008 	-1.76299031474e-05 	-9.86282964728e-23
1.03875967931 	0.00291577093204 	-6.22156146578e-22
1.0413338044 	0.00545356533352 	1.08014264427e-23
1.04435594467 	0.00822377383791 	2.15917342891e-21
1.04798427118 	0.012846268088 	-1.17634864866e-21
1.05217578371 	0.0204367454535 	1.88198584549e-21
1.05745874536 	0.0327331654592 	-2.16280896945e-21
1.06095844829 	0.0528768101898 	2.46472743953e-22
1.06519181884 	0.0841869096791 	-1.54422676928e-23
1.06357826414 	0.135187109216 	2.00624925914e-21
1.06375753618 	0.220411066102 	-2.50976586799e-21
1.05363401321 	0.358120513483 	3.05349975233e-21
0.886664617236 	0.462289217565 	2.59089523841e-21
0.5579581574 	0.45820701191 	-2.73704806131e-22
0.438107495707 	0.362216569792 	-1.03475259842e-22
0.706848448315 	0.228359658723 	-5.77465980011e-22
1.05109856012 	0.138130435594 	7.76386687449e-22
1.11232808796 	0.0643424364837 	-5.02007106023e-22
1.10078306491 	0.0228525481205 	1.64089370623e-24
1.08977843062 	0.00777315216258 	2.63483579065e-22
1.07713033803 	6.04887316793e-05 	-1.98033806457e-21
1.06649791116 	-0.00171881010307 	1.79566162237e-21
1.05730425897 	-0.00248750712534 	-2.69806559307e-22
1.05005132816 	-0.00342169922283 	-3.3404134588e-21
1.04572181413 	-0.00242976296556 	-6.44626213545e-23
1.04163523817 	-0.00134026687625 	6.91422210506e-22
1.03699328214 	0.00283963973534 	4.60588702966e-22
1.03884090013 	0.00507446291273 	-2.86662333678e-22
1.04038829768 	0.00727245565416 	-2.29077499742e-22
1.04231438105 	0.0112275106337 	1.24912832329e-22
1.04408892665 	0.017605986506 	1.09398076777e-22
1.04333758856 	0.0275558326738 	6.26198371058e-22
1.03770718243 	0.042886792772 	1.17867485923e-22
1.02863608322 	0.0695645913524 	3.08569285259e-23
1.001419552 	0.111874695185 	-9.70514063853e-23
0.964250979929 	0.178627121072 	-1.82681041602e-23
0.910793562942 	0.2987087016 	-5.73778697343e-22
0.795783217 	0.419123587214 	-5.43712251394e-22
0.566593903457 	0.508445247239 	-4.32577348968e-22
0.543620113315 	0.474870336188 	8.14024093587e-22
0.860556614976 	0.264169406428 	9.56922302925e-22
1.16464721741 	0.0945317795664 	1.62687245438e-22
1.17687475719 	0.0392187084053 	4.62189106998e-23
1.12792400351 	0.00459892027261 	-5.27189302491e-23
1.09944588866 	-0.00352384017702 	9.45035239397e-23
1.08158885541 	-0.00905849987504 	6.17929414423e-22
1.06654533801 	-0.00758784838281 	3.48692310714e-22
1.05683839675 	-0.00702975341669 	2.68994942217e-22
1.04906520738 	-0.00491245178969 	-3.59183756341e-22
1.04464280747 	-0.00401953566013 	-1.07426160398e-21
1.040326766 	-0.00282865989114 	-7.3960621364e-22
1.03521921647 	0.00285067982784 	-1.07611314928e-21
1.03649093847 	0.00387168153895 	3.5578128039e-22
1.03818142101 	0.00563645298011 	2.78008886248e-23
1.03917744522 	0.00797151589745 	3.21896473054e-23
1.03863920581 	0.0113683018121 	-1.00935522225e-22
1.03424609351 	0.0155951293968 	5.93510972483e-23
1.02443519021 	0.0212854985107 	4.83197081786e-23
1.00286205034 	0.033826432056 	1.15023854471e-23
0.94976153995 	0.0534142493285 	-7.56463931796e-24
0.88330082786 	0.0951735222396 	-4.821001319e-24
0.791180941635 	0.183279233159 	3.11859868536e-22
0.648854809382 	0.322287294875 	1.61111944955e-24
0.579336827772 	0.342881839091 	-3.16703829148e-22
0.743633631928 	0.215535980162 	1.7820060166e-21
1.06369641544 	0.0269223259638 	4.47685856766e-22
1.23347346026 	-0.0381011128204 	2.44901879723e-23
1.21971655861 	-0.0349487486603 	1.4173165446e-23
1.13466585532 	-0.0381883864003 	4.41115721366e-23
1.09981462624 	-0.0237065417325 	9.47380118521e-22
1.08032442343 	-0.020979416351 	-2.52611445807e-22
1.06394939571 	-0.0153234411943 	-4.06751140637e-22
1.05458011309 	-0.0109861541345 	5.69320340419e-23
1.04698024029 	-0.00822399165641 	-7.8287425363e-24
1.04175068257 	-0.00568339793471 	9.07673668204e-22
1.03861248962 	-0.00394556485717 	1.91011080011e-22
1.03424368326 	0.00159691532883 	-1.69810097501e-22
1.03569588749 	0.0024517838217 	-1.76180934771e-22
1.03714631955 	0.003005317948 	7.47452004152e-23
1.03758784535 	0.00320834156796 	4.83698072715e-23
1.0362709944 	0.00270801015108 	3.61718253798e-23
1.03165468691 	0.00070826445963 	-1.70833218425e-22
1.01939946207 	-0.00249450486026 	-2.63298603874e-23
0.9913725434 	-0.00674393733365 	4.6804842753e-22
0.936186782023 	-0.0163351073702 	-3.2127431669e-22
0.830924510247 	-0.0126984113203 	-3.27045268218e-22
0.705941364459 	0.0247755167444 	3.76231518345e-22
0.638256286911 	0.0272221554125 	0
0.699898520934 	-0.046179504874 	-2.71580279436e-35
0.900392240376 	-0.150254913125 	-4.30545077453e-24
1.10790728641 	-0.202444316201 	-1.02036870776e-21
1.19790178127 	-0.168933036445 	5.72916576093e-22
1.17405427203 	-0.107451154615 	8.96294855556e-22
1.1178120855 	-0.0663766032432 	-7.46496347539e-22
1.08626706555 	-0.0447004625549 	3.95762513625e-23
1.07051941044 	-0.0305051630466 	4.53945288077e-22
1.05766951425 	-0.0217576036816 	1.61805086862e-22
1.04923105839 	-0.0149104632041 	-1.28055861444e-23
1.04375945138 	-0.0104186370827 	1.63201186246e-22
1.03916579387 	-0.00686289664444 	-5.68658955836e-22
1.03628098096 	-0.00395847271353 	-5.29247817162e-22
1.03382914378 	0.00124128420931 	0
1.03576974667 	0.00166400936485 	0
1.03795337653 	0.00129756337234 	0
1.039819438 	-0.000288879613529 	0
1.04076976564 	-0.00433856536367 	0
1.03997092414 	-0.012585268105 	0
1.03350156739 	-0.0265880182922 	0
1.01429676057 	-0.0565691632667 	0
0.961034756666 	-0.103404478641 	0
0.840170568703 	-0.1498109662 	0
0.72198532682 	-0.181094838817 	0
0.687560121252 	-0.222862997197 	0
0.763453105612 	-0.276173098084 	0
0.931081084357 	-0.307918405084 	0
1.07492974017 	-0.287808138546 	0
1.12566680294 	-0.212732607651 	0
1.11020593527 	-0.132489720405 	0
1.08192082948 	-0.0822543358068 	0
1.06616630885 	-0.0551535286637 	0
1.05699487421 	-0.0368472322006 	0
1.04905264648 	-0.0249110645079 	0
1.04337530906 	-0.0171669348767 	0
1.03945822137 	-0.0116337601371 	0
1.03614332631 	-0.00762954340953 	0
1.03394152203 	-0.00463509741668 	0
1.03335207741 	0.00112100516572 	0
1.03582959024 	0.00129256529919 	0
1.03912476416 	0.000598308557479 	0
1.04342966772 	-0.00171506906796 	0
1.04852042709 	-0.00687184393868 	0
1.05516767214 	-0.018316890058 	0
1.06462537797 	-0.0373526429943 	0
1.06899548713 	-0.0787621874908 	0
1.0309501781 	-0.149011913606 	0
0.904817780048 	-0.233347119966 	0
0.774698878035 	-0.302465033969 	0
0.730858256443 	-0.349602374529 	0
0.779748887453 	-0.378305775811 	0
0.905146215784 	-0.367871425302 	0
1.00422989657 	-0.302692830841 	0
1.03637266642 	-0.210448017304 	0
1.04354766638 	-0.133549519746 	0
1.04453969037 	-0.0846424902922 	0
1.04390392937 	-0.0564290757143 	0
1.04164278562 	-0.037081466329 	0
1.03922145563 	-0.0245308136694 	0
1.03685618906 	-0.0167374874815 	0
1.03467720475 	-0.0111571254227 	0
1.03277463667 	-0.00732153719494 	0
1.03140838559 	-0.00452187405783 	0
1.03303500356 	0.00133981162763 	0
1.03600346238 	0.00157838465141 	0
1.04045846767 	0.00133516393008 	0
1.04677574939 	-0.000275255427292 	0
1.05616350618 	-0.00307764098275 	0
1.06979328006 	-0.0110839049862 	0
1.09356723735 	-0.023653633776 	0
1.12533499812 	-0.0487762043751 	0
1.11826291747 	-0.104079333801 	0
0.996049146565 	-0.199607180424 	0
0.835958357405 	-0.298744359524 	0
0.762299825362 	-0.359262589446 	0
0.776094186634 	-0.382250679226 	0
0.847834327314 	-0.355084199383 	0
0.912169156117 	-0.27260274883 	0
0.950252881615 	-0.18306306018 	0
0.983352258057 	-0.119025792133 	0
1.00643101185 	-0.0753191822771 	0
1.02009695017 	-0.0479033215512 	0
1.02637822145 	-0.0305647005874 	0
1.02960585124 	-0.0199910957303 	0
1.03069547694 	-0.0133825942307 	0
1.030406253 	-0.00897845282005 	0
1.02975836676 	-0.00601021528835 	0
1.02905140835 	-0.00376548897243 	0
1.03260312518 	0.00193722071565 	0
1.03586496278 	0.00271013762368 	0
1.04103164416 	0.00370204955582 	0
1.04802106263 	0.00409541675668 	0
1.05959688168 	0.00533229448648 	0
1.07628789324 	0.00485791917713 	0
1.10369946693 	0.0051310003071 	0
1.14966115181 	0.00728430417924 	0
1.1801797102 	-0.00139531196994 	0
1.1016704215 	-0.0523489776796 	0
0.937206456942 	-0.150181227296 	0
0.815625898724 	-0.2355689669 	0
0.774498522281 	-0.268571449041 	0
0.789523022164 	-0.242465614376 	0
0.827311312531 	-0.176013358282 	0
0.879692777407 	-0.113201000326 	0
0.934693177105 	-0.070515645873 	0
0.972896558254 	-0.042650474097 	0
0.998194980147 	-0.0254637268712 	0
1.01331816922 	-0.0158204335676 	0
1.02166586018 	-0.0106920581831 	0
1.02577521495 	-0.00738030817507 	0
1.02718747528 	-0.00530072664841 	0
1.02745313408 	-0.00376461049447 	0
1.02716630634 	-0.00244079126848 	0
1.03146276208 	0.002803825881 	0
1.03454113097 	0.00442246077614 	0
1.03952873817 	0.00686226626143 	0
1.04587494018 	0.00961542595932 	0
1.05665856585 	0.0143611652984 	0
1.07174235629 	0.0207197845896 	0
1.09385529157 	0.0315749850517 	0
1.13416623544 	0.052105025409 	0
1.17805598184 	0.0834861854259 	0
1.15117808903 	0.102807795671 	0
1.03119739614 	0.0681586347283 	0
0.890351815265 	0.00386715382585 	0
0.792644361772 	-0.0315970296761 	0
0.763032843298 	-0.0329085867859 	0
0.784471893778 	-0.0142225740607 	0
0.842448929743 	0.00673283992668 	0
0.911672464238 	0.0172827056016 	0
0.960470378456 	0.0167027452162 	0
0.991535464257 	0.0107558172778 	0
1.01021163725 	0.005615713117 	0
1.01993604324 	0.00195380158977 	0
1.02455436233 	7.80512850455e-05 	0
1.02620171725 	-0.000835201984058 	0
1.02653203373 	-0.00106279674474 	0
1.02625967377 	-0.000866570718378 	0
1.02947915175 	0.00352396429017 	0
1.03187602742 	0.00576601752676 	0
1.03581052761 	0.00912819975457 	0
1.04065678813 	0.0135637774811 	0
1.04868617718 	0.0205172318464 	0
1.05946169396 	0.0312085383816 	0
1.07339990321 	0.0478458960328 	0
1.09798858785 	0.0755255615779 	0
1.12861126638 	0.122681864377 	0
1.11816245853 	0.179538409592 	0
1.04263241746 	0.211784226446 	0
0.925022108696 	0.208078698672 	0
0.818251567611 	0.190783102281 	0
0.775235868698 	0.16767687498 	0
0.788078995161 	0.14703812588 	0
0.845330276293 	0.131992648649 	0
0.923294828115 	0.110266889119 	0
0.979790277806 	0.0782857982579 	0
1.00934862601 	0.0462818397268 	0
1.02229057097 	0.0254862972701 	0
1.02705790262 	0.013281655883 	0
1.02844761142 	0.00653127082371 	0
1.0281133631 	0.00289534519432 	0
1.02731337562 	0.00108326555818 	0
1.0264281669 	0.000344713329305 	0
1.0271549675 	0.00360631325014 	0
1.02872657933 	0.00594073268762 	0
1.03121505904 	0.0094669528483 	0
1.03404386075 	0.0145988276674 	0
1.03833753463 	0.0226842570025 	0
1.04366090826 	0.0357669100389 	0
1.04893132635 	0.0559974555837 	0
1.05704318921 	0.0869493422781 	0
1.06745297509 	0.137202222015 	0
1.05226910011 	0.203556899438 	0
0.998527596205 	0.267007016167 	0
0.912960579521 	0.301526061231 	0
0.83352778463 	0.300089761872 	0
0.804399715074 	0.276979424578 	0
0.818548407533 	0.245090016615 	0
0.87895075235 	0.209037576425 	0
0.964846840228 	0.162996362473 	0
1.02521542374 	0.107010160183 	0
1.0458615106 	0.0606233389559 	0
1.04456697819 	0.0336288623783 	0
1.03973690008 	0.0180445934382 	0
1.03552382975 	0.00948575286304 	0
1.03192924732 	0.00460509911846 	0
1.02922232829 	0.00201973625496 	0
1.02725373378 	0.000869380096614 	0
1.0251189112 	0.00284110371448 	0
1.02594437381 	0.00476426674341 	0
1.02693571145 	0.0077682877785 	0
1.027425008 	0.0124185365599 	0
1.02735509832 	0.0201215333419 	0
1.02612238021 	0.0330249325285 	0
1.02195322432 	0.0540638217435 	0
1.01591139917 	0.0847587037268 	0
1.00840511593 	0.131481634564 	0
0.980672569842 	0.19422623101 	0
0.937446295628 	0.263688877626 	0
0.886188464867 	0.313988852803 	0
0.841031766882 	0.322542185837 	0
0.830418833546 	0.30437612838 	0
0.854176573434 	0.270162807604 	0
0.927472368618 	0.218771494941 	0
1.0262755112 	0.151175257679 	0
1.0823960864 	0.0858509551716 	0
1.0836547317 	0.0466728224471 	0
1.06573513719 	0.0266201676248 	0
1.05165269312 	0.014486216761 	0
1.04217725144 	0.00799885805814 	0
1.03571401768 	0.00400982875367 	0
1.03120536207 	0.00183773606546 	0
1.02818114276 	0.000797721129491 	0
1.02376074719 	0.00153001372714 	0
1.02398728008 	0.00257810531836 	0
1.02372145496 	0.00428774473869 	0
1.02207783257 	0.00690514302283 	0
1.01799464896 	0.0115254593307 	0
1.01018468209 	0.0196064022082 	0
0.997243160866 	0.0344509779122 	0
0.980149806838 	0.0564460623559 	0
0.957281395381 	0.0912552484029 	0
0.915918951602 	0.141163235265 	0
0.874800524706 	0.197716276116 	0
0.850545103653 	0.251422941521 	0
0.83980241177 	0.273125889746 	0
0.854592371936 	0.259609398027 	0
0.904301482054 	0.214429230809 	0
0.999659455326 	0.142238924289 	0
1.09744592862 	0.0724815117806 	0
1.12829989951 	0.0295705848593 	0
1.10512497539 	0.0154921038468 	0
1.07714828328 	0.00950344822783 	0
1.05833850649 	0.00500035938738 	0
1.04591874431 	0.00290588497366 	0
1.03794122307 	0.00137017051648 	0
1.03237684836 	0.000657500933962 	0
1.02877449002 	0.000246856889188 	0
1.02326886607 	8.80034086309e-05 	0
1.02328840612 	-5.91811967515e-05 	0
1.02260232908 	-0.000340341055746 	0
1.02022725101 	-0.00106807503637 	0
1.01451709047 	-0.00212062856917 	0
1.00315130484 	-0.00353806920517 	0
0.984763896317 	-0.00326744972294 	0
0.95963567501 	0.000629678111789 	0
0.923689899926 	0.0149007910563 	0
0.87264117729 	0.040989960292 	0
0.829974878682 	0.0677407194705 	0
0.817509805817 	0.0954258547332 	0
0.837303141985 	0.110905752933 	0
0.890701218085 	0.100881598098 	0
0.973962605247 	0.0592517187524 	0
1.07219659813 	0.00141665548708 	0
1.13923177555 	-0.0291556837123 	0
1.13900585507 	-0.0274600865604 	0
1.10455232672 	-0.0159897156344 	0
1.07702128546 	-0.00922158705472 	0
1.05863392813 	-0.00599547422682 	0
1.04603018216 	-0.00362561899069 	0
1.03801833411 	-0.0024050293383 	0
1.0323095507 	-0.00137141558045 	0
1.02872680705 	-0.000789832506942 	0
1.02377497695 	-0.00124505154161 	0
1.02428635339 	-0.00254330934419 	0
1.0244780378 	-0.0048471258162 	0
1.02363757874 	-0.00892556422947 	0
1.02018846551 	-0.0158457887871 	0
1.01112481706 	-0.0274127811194 	0
0.992480666907 	-0.044680886126 	0
0.961941549432 	-0.0628896043551 	0
0.916197346244 	-0.072533405886 	0
0.861037898865 	-0.0742644224252 	0
0.821380569425 	-0.0785641802616 	0
0.812214918106 	-0.0867753765513 	0
0.84185407209 	-0.0937693748983 	0
0.915108751081 	-0.099566920333 	0
1.01049545899 	-0.110367799256 	0
1.09147410668 	-0.117457319959 	0
1.1271816178 	-0.0995676207958 	0
1.11554370577 	-0.0658562522266 	0
1.0880232488 	-0.0393546615663 	0
1.0679909292 	-0.0243057848381 	0
1.05334776477 	-0.015198487041 	0
1.04277708606 	-0.00935813024705 	0
1.03598031138 	-0.00587160748289 	0
1.03097268455 	-0.00345963171157 	0
1.02785651056 	-0.00199665311224 	0
1.0252297908 	-0.00215099635398 	0
1.02686530419 	-0.0041410651364 	0
1.02895315082 	-0.00760788570271 	0
1.03136643159 	-0.0135085577369 	0
1.03331424818 	-0.0235067742359 	0
1.03238089548 	-0.0405611776117 	0
1.02003305516 	-0.0691911638646 	0
0.987645600592 	-0.105919054704 	0
0.934927910996 	-0.137066682869 	0
0.87686421266 	-0.160664800193 	0
0.839836201395 	-0.184208379988 	0
0.830060791399 	-0.206564133842 	0
0.850073476327 	-0.222559278007 	0
0.910675942743 	-0.223208604424 	0
0.994258922299 	-0.207149963586 	0
1.06165120088 	-0.176819465672 	0
1.08513279807 	-0.132626996582 	0
1.07634751829 	-0.0875028448939 	0
1.06309963811 	-0.0547239987109 	0
1.05287617422 	-0.0342927039383 	0
1.04373612475 	-0.0210564066701 	0
1.03677033065 	-0.0127987925541 	0
1.03215382106 	-0.00780410439472 	0
1.02855152933 	-0.00457786886904 	0
1.02625541409 	-0.00264081767413 	0
1.0270891287 	-0.00229897058443 	0
1.02994849647 	-0.00429604289811 	0
1.03408171907 	-0.00761675216642 	0
1.03995435477 	-0.01315964434 	0
1.04793422839 	-0.0222404286025 	0
1.05749325141 	-0.0379724000749 	0
1.05832051029 	-0.0653992228617 	0
1.02991331917 	-0.110351498056 	0
0.97144477191 	-0.158490034562 	0
0.908013443518 	-0.197005437138 	0
0.867305436632 	-0.229824624489 	0
0.851529866751 	-0.253244290027 	0
0.857398956855 	-0.267714707585 	0
0.896209526262 	-0.264988528166 	0
0.957007971779 	-0.237957977456 	0
1.01149959989 	-0.190966858961 	0
1.03475132646 	-0.136978987575 	0
1.0348945993 	-0.09257610435 	0