1.0140785191 	-0.00823271252737 	-2.07918425842e-21
1.01516152132 	-0.0128463569607 	-1.57712582359e-21
1.01640665833 	-0.0179709769702 	5.74242495802e-22
1.01776877755 	-0.0240053700861 	3.13507288821e-25
1.01888030564 	-0.0309959347019 	-6.37376325872e-22
1.01922501386 	-0.0392973905809 	-3.09892339813e-22
1.01775355235 	-0.0485916954547 	-3.51720388482e-22
1.01254297417 	-0.0574738278786 	-1.7086230305e-21
1.00213233171 	-0.0678096620303 	2.38997351155e-20
0.982362467404 	-0.0719392711791 	1.72941834814e-21
0.954836653674 	-0.0644348451487 	3.96508805691e-23
0.927313413629 	-0.0374027458376 	2.06616472495e-21
0.916427521516 	0.00715789832024 	-3.52727825686e-24
0.932681689134 	0.0501168902183 	2.42588777956e-22
0.963487732195 	0.0732462374037 	-1.45531857693e-21
0.991694384725 	0.0766342660436 	1.66957895508e-21
1.01035422132 	0.06920849616 	1.57436177723e-20
1.01905839366 	0.0568512325566 	-1.19748236587e-21
1.02240992373 	0.0469633377495 	-1.12749506958e-21
1.02239566426 	0.0373740919869 	2.32253766479e-22
1.02090249198 	0.0292061005337 	4.66463673306e-22
1.01892447158 	0.0224492527255 	9.64832228274e-24
1.0169497669 	0.0167723192221 	-2.54554759591e-22
1.01531869426 	0.0119466817511 	5.35644108099e-22
1.01399536748 	0.00761335669771 	5.37957776136e-22
1.01868366164 	-0.00885026661354 	7.38323082034e-22
1.02030067096 	-0.013818896906 	1.46797505463e-21
1.02238665782 	-0.01966483716 	9.54593787153e-22
1.02480740595 	-0.0265822199276 	-1.89772797334e-22
1.02730244343 	-0.0349401660786 	9.40686260733e-22
1.02916585236 	-0.0452988932726 	-4.12538169678e-22
1.02929653325 	-0.057935280446 	7.39094661625e-22
1.02578219326 	-0.0735630218034 	2.33713938512e-22
1.01417281928 	-0.0916538825378 	-7.24886859322e-22
0.988873110465 	-0.108251860758 	-3.05944124102e-21
0.941535375543 	-0.113354721985 	-4.17935597195e-21
0.877087892891 	-0.0791689603425 	1.04246493358e-20
0.844858325858 	0.0099245209262 	1.67934738587e-22
0.887352894427 	0.0949596905805 	9.39223420217e-21
0.956101471738 	0.121204374707 	-7.59286812743e-21
1.0028546179 	0.109390322674 	-1.73228051047e-21
1.0254179764 	0.0887818585044 	-3.70964592126e-22
1.03336520164 	0.0688000924456 	-2.10432314078e-22
1.03426878997 	0.0530305518804 	-3.47903739579e-22
1.03209212663 	0.0409205037938 	1.89259567176e-22
1.02878598938 	0.0313871605076 	-4.799963141e-22
1.02539894631 	0.0238673041242 	7.85499411069e-23
1.02242476768 	0.0177287484508 	-1.88389271072e-22
1.02001622953 	0.0125010488935 	-4.23869188276e-22
1.01822863661 	0.00800085381422 	-1.0509291197e-22
1.02348087562 	-0.00904022741416 	1.48909850326e-23
1.02583102399 	-0.0140443849086 	6.99331205852e-22
1.02893802172 	-0.0202725241514 	-6.57698425955e-22
1.03275743891 	-0.0277034975341 	-3.70676662786e-24
1.03722866002 	-0.0369777289609 	2.90768465717e-22
1.04178111417 	-0.0489942551543 	2.87395286493e-22
1.04539354266 	-0.064716395671 	-6.08453088372e-22
1.04605593822 	-0.0857872950261 	-1.5216023165e-21
1.03977691306 	-0.114231806443 	-1.54433761456e-22
1.01716460025 	-0.153320217704 	1.18766259086e-21
0.952528367447 	-0.197853484571 	1.65614978365e-20
0.79887610924 	-0.19581082206 	-2.09666598307e-21
0.667647053397 	0.0181205423964 	-2.65980379096e-21
0.821778829179 	0.218994255083 	-3.58605020028e-21
0.977881886775 	0.203291892398 	9.31369119197e-21
1.03703403587 	0.148064753155 	-4.18355570427e-22
1.05330858172 	0.104726537671 	1.26634972076e-23
1.05407339018 	0.0756405382658 	1.54269216636e-23
1.04944401209 	0.0557437881585 	-9.7518562516e-23
1.04338858051 	0.0419107950231 	6.17518811013e-23
1.03743626179 	0.0317444010316 	-5.38191185709e-23
1.03227962164 	0.0239885606358 	-1.16225093696e-24
1.02812315143 	0.0177507926304 	2.92751641232e-23
1.02487916276 	0.0124429773365 	-8.62828411542e-23
1.02252871326 	0.00803901187964 	-1.20505875162e-22
1.02831529041 	-0.00864374465995 	6.60604549235e-23
1.03141440531 	-0.0135267374265 	-2.65125783519e-23
1.03563864222 	-0.0195480478152 	1.12417469716e-22
1.04116059783 	-0.0269278939517 	-9.98865293162e-23
1.0479860854 	-0.0362975343953 	-1.38330445927e-22
1.05599192393 	-0.0489497785067 	-1.02771733629e-22
1.06469369081 	-0.0662250588279 	1.29120690216e-22
1.07315221568 	-0.090548843765 	-2.3867925026e-22
1.0794769425 	-0.126474540853 	2.06721092333e-25
1.07878384166 	-0.184979558496 	-3.38818805263e-22
1.05359698554 	-0.298736842594 	-2.44404068309e-23
0.837648621478 	-0.569413063449 	-2.55106109221e-21
0.897935934098 	0.597267543068 	2.230021754e-22
1.09645488871 	0.2937380264 	-1.94372492416e-21
1.10587174825 	0.168140013177 	-2.13441084995e-21
1.09393894161 	0.107187009778 	-6.4729512931e-22
1.07933405536 	0.0736655421945 	9.03165160745e-22
1.06606692624 	0.0530944824873 	4.69850795516e-22
1.05498741559 	0.0395524567605 	-7.84831023663e-23
1.04606507767 	0.0298893271132 	-1.37811153853e-22
1.03905910197 	0.0226700843767 	-9.67145242457e-23
1.03367024452 	0.016819988752 	-1.31125598927e-23
1.02964427222 	0.011861451401 	-3.6963431488e-23
1.02676585787 	0.00767061863532 	5.95154236246e-24
1.03285950738 	-0.0075740625823 	-4.05369187251e-23
1.03664825226 	-0.0121290303745 	4.44548962073e-23
1.04196022924 	-0.0173883316971 	3.53844974218e-23
1.04921598461 	-0.0240223482768 	-1.31156585536e-25
1.05851128243 	-0.0325832187982 	-1.42019710431e-23
1.07032073252 	-0.0443081748964 	-1.80426349832e-24
1.08482106271 	-0.0606712314032 	-3.9040860125e-24
1.10227762421 	-0.0840441370033 	1.96201764695e-23
1.123970435 	-0.118516271998 	-3.70535405114e-22
1.15534706398 	-0.171747463956 	-1.80816992861e-22
1.22542040978 	-0.26225587672 	1.85875745963e-22
0.0438213230437 	0.0014995219753 	-2.11038434838e-21
1.28557264671 	0.232452165392 	-2.69993346475e-22
1.18617694661 	0.135224813233 	3.8419087349e-22
1.13500172405 	0.0862039078373 	1.10233140507e-21
1.10283103211 	0.0599351950306 	-3.3535081912e-22
1.08091389849 	0.0441979025798 	-4.06400017299e-24
1.06524858233 	0.0337388330523 	8.90278830603e-24
1.0536969247 	0.0260540732478 	1.06753144082e-22
1.04514820001 	0.0200416440747 	-3.38624790329e-25
1.0387076114 	0.0150528806558 	7.10989279013e-23
1.03405097283 	0.0107918760823 	6.84666142723e-23
1.03075369754 	0.00684848781467 	-2.97559359837e-23
1.03656226393 	-0.00630331249775 	1.8239136217e-24
1.04097623533 	-0.00967415067677 	-3.38039194193e-23
1.04730409223 	-0.0138919539517 	-3.45096490412e-23
1.05601018509 	-0.0190217265846 	7.2791147732e-24
1.06748522064 	-0.0256917122523 	7.39655246908e-23
1.08276767544 	-0.0349219247742 	1.58071854477e-22
1.10241292278 	-0.0479244725685 	-9.30428430568e-22
1.12765901356 	-0.0665501687531 	3.97335790679e-22
1.16012078208 	-0.0926028869514 	1.32231331555e-21
1.20449267818 	-0.125046906209 	-8.25395993592e-21
1.25868252122 	-0.142440676792 	2.33423101414e-20
0.0910558795344 	0.00228879623677 	1.34908287216e-21
-0.000598498220982 	0.0172476320914 	-4.49403191455e-22
0.174401813551 	0.0436678871432 	-1.38492586977e-23
1.34217439809 	0.076848818662 	-3.81758386011e-20
1.22878521738 	0.0583294045794 	1.19740035424e-20
1.15814736938 	0.04518941926 	1.12446807337e-21
1.11669676147 	0.036953619304 	3.82613312216e-22
1.09017904792 	0.030752151009 	1.62963491085e-21
1.07228845807 	0.025501505047 	-2.79276299342e-22
1.05935970675 	0.0207988143796 	-2.49615290357e-22
1.04998540704 	0.0165102739876 	-1.12319370941e-23
1.04291435837 	0.01270876257 	-4.83807583622e-23
1.03775270134 	0.00916820525599 	-9.60070605802e-23
1.03413881306 	0.00605862796902 	-1.83568566069e-22
1.03945829069 	-0.0044341265053 	-1.53652582844e-23
1.04413181408 	-0.00657588280341 	-1.22324727227e-22
1.05113585313 	-0.00937991964537 	1.87088338207e-22
1.06078668878 	-0.0124494985656 	-1.80354501606e-24
1.07383927655 	-0.016415601861 	-2.76844042901e-22
1.09147450039 	-0.0217777642946 	-2.97759767468e-22
1.11496648031 	-0.0294504187472 	8.9834582851e-22
1.14567420078 	-0.0409592173079 	3.29670266903e-21
1.18452799144 	-0.057897904369 	7.73879885135e-22
1.22976701595 	-0.0812140612149 	2.89448896217e-21
1.20132875579 	-0.0773456351153 	2.07474297208e-21
0.0969675967485 	0.0073466896516 	-3.16368133903e-21
-0.173255876357 	0.0744274856188 	-3.54883459257e-21
0.490918769183 	-0.00275001429732 	-8.77209419467e-21
1.31687603645 	-0.0743220339719 	-3.22482726841e-21
1.22073714396 	-0.0260519974509 	-3.77926947158e-21
1.15402990119 	0.00016232146088 	-1.36238266639e-22
1.1164159579 	0.0125070293657 	-4.75179982857e-21
1.09211789008 	0.0169146890744 	-1.43940649638e-21
1.07524738129 	0.0170138277682 	3.72908233111e-22
1.06280914871 	0.0152422203594 	4.53825087741e-22
1.05340906944 	0.0127130116813 	5.39532625313e-24
1.04614234796 	0.0101082622015 	-6.17398020405e-22
1.04071800946 	0.00736931924803 	5.46338227302e-22
1.03702819116 	0.00494032021512 	4.84865655744e-22
1.04130126839 	-0.00243580770289 	-1.24011344642e-22
1.04599696795 	-0.0032890876444 	-4.1455577839e-22
1.05308413211 	-0.0043663200663 	-2.74521933375e-22
1.06296905392 	-0.00510792072271 	6.21601929429e-23
1.07646232835 	-0.00574233738589 	-6.47009089037e-22
1.09529209446 	-0.00620435177257 	4.6120994778e-22
1.12042556681 	-0.00717807878173 	-1.15299353743e-21
1.15409553939 	-0.00904225966537 	-9.00193602186e-23
1.2016744964 	-0.0164840543714 	-2.53200409436e-21
1.25895890777 	-0.0344055845736 	-2.94775145493e-21
1.16506312048 	-0.0545008020523 	4.60800505894e-21
0.188759726081 	-0.183614516076 	6.36092511133e-21
-0.169648266559 	-0.316092385124 	5.45627016848e-22
0.621188090585 	-0.328679305743 	1.34073826487e-20
1.20058936991 	-0.210413322844 	-2.37802504684e-21
1.15434961688 	-0.088274796745 	-2.51122483128e-21
1.12779534167 	-0.0323730944332 	-1.8764116735e-21
1.10368813688 	-0.00411859163791 	2.93153102592e-22
1.08798800696 	0.00692369490139 	1.82077462595e-21
1.0751885282 	0.0103826909815 	-6.58223968973e-22
1.06420790937 	0.010462809395 	9.74517694156e-22
1.05555226677 	0.00916778910164 	-1.13698286692e-22
1.0484334936 	0.00750659947243 	7.35053685838e-22
1.04304901841 	0.00555705276908 	9.13346144285e-22
1.03933161735 	0.00371099915474 	-3.07902503441e-23
1.0418716004 	-0.000530210032928 	4.05715619516e-22
1.04644917632 	-0.000228432850176 	4.16958669594e-22
1.05300986542 	0.000503561893956 	-2.35782063596e-22
1.06235243325 	0.00210754835948 	-8.20616637978e-23
1.07508808306 	0.00492596119709 	3.00281616507e-22
1.09277681811 	0.00942449075664 	1.65474993451e-22
1.11805967281 	0.0174752335542 	-2.35183387388e-22
1.15075708338 	0.0240884949362 	7.67169890234e-22
1.20147063709 	0.0356281237867 	2.87484596933e-20
1.28368276695 	0.0387930793197 	2.44224912194e-21
1.21626500612 	0.0207781359193 	9.47479638245e-22
0.468403835074 	-0.226986056083 	4.30385256233e-21
-0.0514119804062 	-0.496867441845 	-3.42353442385e-22
0.481893808373 	-0.419424236106 	1.41850257369e-21
1.01432782671 	-0.219148175859 	-1.0482692425e-21
1.0669964529 	-0.0865854730678 	1.73112697468e-21
1.08574528665 	-0.0298734618872 	1.90465054443e-20
1.08565470364 	-0.00593847450749 	4.2661377229e-22
1.08185572576 	0.00335400772614 	2.46345702388e-21
1.07358423561 	0.00646442815747 	-2.83079828546e-22
1.06465435846 	0.00685574554996 	-8.02395950469e-22
1.05684314836 	0.00607375094315 	1.68594899936e-22
1.04993542291 	0.00502539741125 	3.52789169193e-22
1.04473519107 	0.00370519690624 	-8.02017871072e-22
1.04091878935 	0.00243595358476 	-6.95564812383e-22
1.04147564903 	0.00113302550223 	-6.18464747979e-22
1.04550229593 	0.00239683139634 	-2.54026793825e-22
1.05107079244 	0.0045722987169 	-5.8853260393e-23
1.05913259162 	0.00813986670416 	-2.47673951415e-22
1.07027634554 	0.0141374793236 	2.43646328945e-22
1.08449096967 	0.0240470381195 	-8.77258494279e-22
1.10346454353 	0.0358954332691 	-8.86149392237e-22
1.13365264311 	0.0585584110412 	-1.32176778117e-21
1.17425064868 	0.0919305645953 	4.24805150861e-21
1.26326291819 	0.141909882206 	7.58188484711e-22
1.24841871339 	0.194174520342 	-8.31881716304e-21
0.790748177485 	0.0910344595372 	-6.65951797939e-21
0.165490561443 	-0.200346879659 	-1.11121221922e-21
0.253548043339 	-0.302567207389 	-2.57050666689e-22
0.848823969606 	-0.0983995711986 	5.6420347174e-24
1.00910626437 	-0.0153507956395 	9.67400130426e-23
1.05992586311 	-0.00145258178394 	1.1821664671e-21
1.07733391203 	0.00436230279598 	-4.94799764647e-22
1.07806268376 	0.005659930608 	9.28574981485e-22
1.07332950848 	0.00389595507331 	9.86313586741e-22
1.06548161607 	0.00409955592105 	-1.44728422556e-21
1.05773060765 	0.003271477382 	3.22208135127e-22
1.05085092729 	0.00256141545438 	9.62866131064e-23
1.04576463925 	0.00175143857843 	8.6220932834e-22
1.0419397874 	0.00113435431448 	3.9309731788e-22
1.04025535037 	0.00220082490035 	7.49336439446e-22
1.04349933312 	0.0041871051345 	-1.68844842049e-21
1.04780331744 	0.00709323837572 	1.06919888524e-21
1.05385089785 	0.0120903801697 	5.7568888772e-24
1.06131773148 	0.0192571308353 	1.96276546533e-21
1.07045791136 	0.0301480209914 	-4.79344862942e-22
1.08322154148 	0.0493028211717 	-1.94857805024e-21
1.1005930106 	0.0796855226722 	1.06396854228e-22
1.12055294058 	0.127425429231 	1.4568508183e-21
1.16615307736 	0.212260570224 	1.40932633781e-21
1.17996931103 	0.3400734028 	-9.39114539405e-21
0.913969611211 	0.404927953985 	1.34395964828e-22
0.427532297623 	0.256285325091 	-4.24153367829e-22
0.291019753553 	0.0614971734713 	6.03659145614e-23
0.723225453832 	0.0431928305099 	3.80773920702e-21
1.01145130137 	0.0776998581396 	-4.27532004131e-22
1.07147284275 	0.0385218445828 	8.39054582169e-23
1.08489793205 	0.0183872563308 	7.43612785896e-23
1.0828171444 	0.00803478330329 	-1.32143862797e-21
1.07471076764 	0.00396807379055 	-6.11788867965e-22
1.06622971369 	0.0013239965665 	1.60835736702e-21
1.05810764885 	-0.000477003806573 	-1.49931226088e-24
1.05128440815 	-5.41455436044e-05 	-1.85000792017e-21
1.046196393 	-0.000352529244567 	3.17511440166e-21
1.04217587857 	-0.000100708829308 	-1.06443724561e-22
1.03858392716 	0.00277367542338 	-5.81839337795e-22
1.04110286702 	0.00515761178579 	4.82339805147e-24
1.04401070312 	0.00783562590834 	2.04720405706e-21
1.04739116825 	0.0122973531906 	-1.12195208024e-21
1.0511738982 	0.0196165633827 	1.80323022472e-21
1.05583140149 	0.0316048432421 	-2.07371784804e-21
1.05807370617 	0.0514173043322 	2.36009402119e-22
1.06042606779 	0.0820263609508 	-1.49341071358e-23
1.05555763137 	0.132222017807 	1.84564513623e-21
1.04877336481 	0.217471293625 	-2.30488252546e-21
1.03517671293 	0.356577791505 	2.78149196438e-21
0.874940375038 	0.464665610454 	2.36917641451e-21
0.5500555207 	0.477747578548 	-2.63722472996e-22
0.441552223286 	0.393421754585 	-2.0462163806e-22
0.727978764535 	0.242907000914 	-4.71964907255e-22
1.07386592215 	0.136166196068 	4.65277268312e-22
1.12510595081 	0.0612949120094 	-2.39026563242e-22
1.1067871036 	0.0203483353762 	3.26289201838e-24
1.09311247192 	0.00570706411501 	2.88901923194e-22
1.07876198117 	-0.00133102715359 	-2.14132751829e-21
1.06750553492 	-0.00262712269769 	1.92446049829e-21
1.05786829234 	-0.00306586493323 	-2.91534084371e-22
1.05036980326 	-0.00380337103114 	-3.54720213332e-21
1.04595718836 	-0.00269582112056 	-7.50191954078e-23
1.04179869157 	-0.00147504461694 	7.34014395163e-22
1.03690669828 	0.00267341689917 	4.22027380751e-22
1.03871247147 	0.00476574835814 	-2.63849837322e-22
1.04022234805 	0.0067560477936 	-2.12760872699e-22
1.04203756689 	0.0104576984861 	1.13177746141e-22
1.04356658182 	0.0163497747878 	1.05073441632e-22
1.04232037997 	0.0255952317334 	5.78172690165e-22
1.03573684018 	0.0400009558351 	1.12635206927e-22
1.0251027463 	0.0648677911752 	4.11300944439e-23
0.994634332635 	0.105245676338 	-8.77641667166e-23
0.952138070405 	0.170595584291 	-3.40505197878e-23
0.893913578131 	0.282288514967 	-4.70846768769e-22
0.770811653133 	0.407214073451 	-4.4934968152e-22
0.549396641859 	0.505879360691 	-4.71733879499e-22
0.551504635484 	0.464207799376 	9.86039187684e-22
0.901700542907 	0.231050567864 	1.152114051e-21
1.1860360819 	0.075802121187 	1.95503349334e-22
1.18539187095 	0.0266161310512 	3.41211666192e-23
1.13092639357 	-0.00178446472106 	-7.38979914337e-23
1.10121961215 	-0.00736762444011 	9.96466013512e-23
1.08233005484 	-0.0113036600387 	6.89150495695e-22
1.06696277877 	-0.00892000600585 	3.65380243813e-22
1.05702290668 	-0.00786359403408 	2.83933437833e-22
1.04918091869 	-0.00541427264627 	-3.90274368089e-22
1.04474506253 	-0.00434394885326 	-1.14889323791e-21
1.04039535968 	-0.00299141406257 	-7.92881212186e-22
1.03526702206 	0.00266910688217 	-9.54578484241e-22
1.03653817341 	0.0035799753137 	3.15169657224e-22
1.03827899353 	0.00512238592791 	2.92529446181e-23
1.03930059245 	0.00712661296147 	2.90177266362e-23
1.03870678382 	0.00995770601748 	-6.89282718695e-23
1.03446778379 	0.0132343790752 	8.71134963444e-23
1.02451888936 	0.0171975569001 	-2.96270233579e-23
1.00230918757 	0.0270635425772 	9.8693920456e-24
0.947433278146 	0.0433543035956 	-1.20631039941e-23
0.876503672804 	0.0779523242393 	-3.62363304265e-24
0.77205090093 	0.166833592547 	3.4853631875e-22
0.62880197628 	0.297277524704 	1.2043285673e-24
0.581617255759 	0.295407813937 	-3.45047748527e-22
0.773017850478 	0.1513977656 	1.93496246726e-21
1.08600525021 	-0.0189815065735 	5.12839165328e-22
1.23817073492 	-0.0661139194022 	2.2770024264e-23
1.21635506851 	-0.0487295525248 	1.87885984544e-23
1.13223801811 	-0.0449030569642 	4.63780516006e-23
1.0989168469 	-0.0282069400079 	1.06231162048e-21
1.07971085669 	-0.0232541884363 	-2.95672143794e-22
1.06356556842 	-0.01669458546 	-4.5202316372e-22
1.05437937164 	-0.0118315185182 	6.2486873409e-23
1.04684119934 	-0.00870586880477 	-1.09297235051e-23
1.04168450787 	-0.00598750584568 	9.83640991603e-22
1.03855978607 	-0.0041083014105 	1.99273234806e-22
1.03437888293 	0.00147165334247 	-1.40035610912e-22
1.03594981206 	0.00224171984611 	-1.44666739963e-22
1.03757457291 	0.00264183146072 	6.60875788052e-23
1.038251807 	0.0025220654544 	4.92475006544e-23
1.03730972245 	0.00140854789987 	2.71912495323e-23
1.03326503723 	-0.00156429525632 	-1.99683472955e-22
1.02162791123 	-0.00642068705225 	-2.89454273213e-23
0.994584325678 	-0.0145080893005 	5.12526284169e-22
0.939239105679 	-0.0302090533928 	-3.51280591899e-22
0.828860448778 	-0.0340470383109 	-3.5632151756e-22
0.700789281229 	-0.00899571710691 	4.11116589555e-22
0.639614964576 	-0.0209333141004 	0
0.710911646079 	-0.0986953628355 	-2.79739726441e-35
0.911076050539 	-0.192742149285 	-4.43480514997e-24
1.10766794151 	-0.228826460355 	-1.01549779152e-21
1.18866698038 	-0.182927632955 	5.82516781989e-22
1.16387958931 	-0.115053264387 	8.91372496331e-22
1.11164306858 	-0.0708778598515 	-7.81928724433e-22
1.08321422398 	-0.0475626350176 	4.31738551872e-23
1.06870256563 	-0.032301877376 	4.98076652298e-22
1.05658769462 	-0.0226755541918 	1.77201467875e-22
1.04860905641 	-0.0155671593191 	-1.55130756834e-23
1.04336073668 	-0.0107715083565 	1.79164781341e-22
1.03893919874 	-0.00707096488434 	-6.24956711206e-22
1.03614218683 	-0.00409445422538 	-5.82361287719e-22
1.0339880498 	0.00119195176504 	0
1.03607190275 	0.00159739849253 	0
1.03849893075 	0.00117198092384 	0
1.04080018547 	-0.00055505249747 	0
1.04245935477 	-0.00490985040033 	0
1.04284245753 	-0.0138057215446 	0
1.03865759886 	-0.0288220559696 	0
1.02305323172 	-0.0619046851461 	0
0.97223817501 	-0.114057767158 	0
0.8486709375 	-0.168671645537 	0
0.726230227164 	-0.209737767928 	0
0.690882082225 	-0.255331933684 	0
0.766149150021 	-0.304893634558 	0
0.930060534854 	-0.327131281022 	0
1.06632876639 	-0.296350632859 	0
1.11163582741 	-0.21574088172 	0
1.09838277043 	-0.134324622768 	0
1.07539077059 	-0.0837745953824 	0
1.06258931194 	-0.0562827453995 	0
1.05463143127 	-0.0375433753358 	0
1.04765574044 	-0.0252582731262 	0
1.04256351489 	-0.0174153477766 	0
1.03892527053 	-0.0117513443002 	0
1.03584357255 	-0.00769090114774 	0
1.03375851257 	-0.00467714832418 	0
1.03350881815 	0.00115977414104 	0
1.03610621525 	0.00136201926052 	0
1.03964309306 	0.000754756903771 	0
1.04439300798 	-0.0014356677604 	0
1.05030599263 	-0.00627480589978 	0
1.05829434735 	-0.0174053147519 	0
1.07061321703 	-0.0357660980944 	0
1.08046203405 	-0.0757598145722 	0
1.04766362008 	-0.146565848175 	0
0.919657608683 	-0.236307008953 	0
0.781524617878 	-0.31234936608 	0
0.73209250605 	-0.361404582721 	0
0.776899858229 	-0.387940284325 	0
0.896339884529 	-0.372962498847 	0
0.990134159086 	-0.302007426046 	0
1.02153300891 	-0.207954327118 	0
1.03274198207 	-0.132423921401 	0
1.03819513275 	-0.0841224016629 	0
1.0401908988 	-0.0558374150014 	0
1.03924338185 	-0.0365812797909 	0
1.03781017079 	-0.0241683377979 	0
1.03604696146 	-0.0164620597084 	0
1.03416806818 	-0.0109693488691 	0
1.03249406965 	-0.00721271337816 	0
1.03123822005 	-0.00445704972562 	0
1.03315896056 	0.00147304426108 	0
1.03620467797 	0.00180374369374 	0
1.04081676364 	0.00178835583202 	0
1.04733687315 	0.000530888477884 	0
1.05726121435 	-0.00150494605585 	0
1.07166520707 	-0.00828212387072 	0
1.0967554336 	-0.0187214727795 	0
1.13279480004 	-0.039056039917 	0
1.13453875225 	-0.0871716286279 	0
1.01795539956 	-0.178916799545 	0
0.849945499822 	-0.284207615476 	0
0.764785022521 	-0.352019554829 	0
0.771226346305 	-0.37606159288 	0
0.835055132205 	-0.346423244622 	0
0.895716172073 	-0.262554950735 	0
0.93652887879 	-0.174930908101 	0
0.973885333408 	-0.113571071994 	0
1.00037540612 	-0.0716992965207 	0
1.0164242644 	-0.0452076285431 	0
1.02424470054 	-0.0287487941445 	0
1.02840728316 	-0.0188460335414 	0
1.03004727013 	-0.0126251561516 	0
1.03004957866 	-0.00852122111095 	0
1.02957450739 	-0.00574328010809 	0
1.02894165986 	-0.00361139713457 	0
1.03260552616 	0.00214262225425 	0
1.03586444672 	0.00308773082085 	0
1.04104732085 	0.00437332103511 	0
1.04795928272 	0.00521442651622 	0
1.059538037 	0.00722264762119 	0
1.07613448783 	0.00812935879276 	0
1.10290876843 	0.0105970752407 	0
1.1493160258 	0.0169131890387 	0
1.18651047932 	0.0175806868512 	0
1.11975335323 	-0.0203474275945 	0
0.958168591579 	-0.111578645003 	0
0.826645919885 	-0.19931117645 	0
0.772784402085 	-0.235173052867 	0
0.779229527814 	-0.212730115668 	0
0.814998526362 	-0.152503544225 	0
0.869930051091 	-0.0956076191269 	0
0.928488628324 	-0.057812115489 	0
0.969209304295 	-0.0341822175161 	0
0.996130571994 	-0.0201805734688 	0
1.01234042259 	-0.0126758556949 	0
1.02121163546 	-0.008861810729 	0
1.02558354932 	-0.00630348244982 	0
1.02712723699 	-0.00467679574811 	0
1.02744876648 	-0.00339980509482 	0
1.0271774696 	-0.0022332524884 	0
1.03129730682 	0.00300425795174 	0
1.03427706967 	0.00479002002748 	0
1.0391264726 	0.0074685752493 	0
1.04522171314 	0.0106010257621 	0
1.05558596729 	0.0158610176447 	0
1.06996560951 	0.0231703460402 	0
1.09057185881 	0.0353113795905 	0
1.12849211384 	0.0576412321369 	0
1.17240464162 	0.0936047878204 	0
1.15213716338 	0.123441277429 	0
1.04131668801 	0.103767877344 	0
0.900606664766 	0.0485360923282 	0
0.795263209966 	0.013418298618 	0
0.760566945963 	0.00597329845079 	0
0.78063068696 	0.0158082857437 	0
0.83949130251 	0.0299103502339 	0
0.911183831794 	0.0342217762639 	0
0.96178483754 	0.027803222344 	0
0.993194047503 	0.0171233594616 	0
1.01153289626 	0.0091215346219 	0
1.02081508668 	0.00389167439346 	0
1.02511469558 	0.00113855660875 	0
1.0265576816 	-0.000247019023691 	0
1.02676487321 	-0.000736462034427 	0
1.02642135694 	-0.000689059396861 	0
1.02919503274 	0.00363460123175 	0
1.031445887 	0.00595378867976 	0
1.0351380581 	0.00942228515985 	0
1.03963255635 	0.0140725924276 	0
1.04702278429 	0.0213001311731 	0
1.05685073374 	0.0325251430033 	0
1.06921456014 	0.0498478595996 	0
1.09080261525 	0.0781184395192 	0
1.11831766395 	0.126462270329 	0
1.10873143854 	0.187359458239 	0
1.03864536301 	0.228440976301 	0
0.925407441001 	0.233507586737 	0
0.820347196534 	0.219281575207 	0
0.777971807319 	0.194714210649 	0
0.790630245214 	0.17038106125 	0
0.848977397883 	0.150523371945 	0
0.929212205188 	0.123383245948 	0
0.986739776673 	0.0859705818573 	0
1.01503891973 	0.0502003652717 	0
1.025864689 	0.027558747252 	0
1.02915546766 	0.0143964485343 	0
1.02967780493 	0.00713533698941 	0
1.02883328812 	0.00321024243494 	0
1.02774320602 	0.00123663201172 	0
1.02669708062 	0.00042087368336 	0
1.02684937543 	0.0035706455571 	0
1.02827012684 	0.00588459547466 	0
1.03047701722 	0.00937693636625 	0
1.03288909793 	0.0145188792103 	0
1.03641391726 	0.022650357947 	0
1.04061845833 	0.0358920825802 	0
1.0442632558 	0.0564846009783 	0
1.04966094212 	0.0876583662902 	0
1.05656360547 	0.137821828457 	0
1.03973467908 	0.204612565351 	0
0.989072266388 	0.271408825835 	0
0.909081188012 	0.310448834443 	0
0.834232621442 	0.310880014467 	0
0.807972429906 	0.288246114595 	0
0.823683629596 	0.255571605842 	0
0.886491352404 	0.216611808901 	0
0.97524414657 	0.166090785295 	0
1.03572559627 	0.106507968368 	0
1.05330543862 	0.0595865746252 	0
1.04875276477 	0.0330935736431 	0
1.04212340687 	0.0177266418981 	0
1.03690727751 	0.00934101225239 	0
1.03275287633 	0.0045197552837 	0
1.02970705834 	0.00196510426661 	0
1.02754421838 	0.000836062238758 	0
1.02488399326 	0.00266992098743 	0
1.02558155856 	0.00448077637877 	0
1.02631243478 	0.00731490195211 	0
1.0263831043 	0.0117195993416 	0
1.02552748491 	0.0190747093089 	0
1.02306548736 	0.031468792053 	0
1.01722146816 	0.0519727976905 	0
1.00890647988 	0.0818574311466 	0
0.998270466354 	0.127239637329 	0
0.967991348857 	0.18858887844 	0
0.926024002497 	0.257941619627 	0
0.880190507673 	0.310746855895 	0
0.840394854468 	0.321688628872 	0
0.832893941686 	0.304201949681 	0
0.860087655451 	0.268669236147 	0
0.938919919175 	0.21269194739 	0
1.04065555712 	0.141129276456 	0
1.09319943365 	0.0769873191586 	0
1.08921835743 	0.0415289352381 	0
1.06857791544 	0.0238150467914 	0
1.05330306718 	0.0128972430463 	0
1.04314070647 	0.00713788037242 	0
1.03632234557 	0.00353900201522 	0
1.03157266141 	0.00160101092973 	0
1.02841005867 	0.000674315648292 	0
1.0236603601 	0.00129883194471 	0
1.02381787718 	0.00216322502871 	0
1.02340651941 	0.00356931574121 	0
1.02151602873 	0.00567409408815 	0
1.01693170477 	0.00944008528762 	0
1.00819321193 	0.0161018282949 	0
0.993930684167 	0.0288839021587 	0
0.975042361776 	0.0482895487858 	0
0.949377179712 	0.0800187235842 	0
0.905647099362 	0.126473884259 	0
0.864178440308 	0.179066716945 	0
0.842914647281 	0.230724968618 	0
0.838056044536 	0.253562081909 	0
0.859172019614 	0.240456293584 	0
0.91588132536 	0.192938860055 	0
1.01553202815 	0.119195836441 	0
1.1103046653 	0.0533549359587 	0
1.13402511293 	0.0179259168406 	0
1.10650707209 	0.00926744633352 	0
1.07778923492 	0.00586724892238 	0
1.05878014645 	0.00287320401753 	0
1.04618279115 	0.00165707195142 	0
1.03813881995 	0.000647091580209 	0
1.03250363606 	0.000271776207166 	0
1.02887569539 	4.61705403732e-05 	0
1.02333678152 	-0.000135677994513 	0
1.02339635187 	-0.000484878416132 	0
1.02277633396 	-0.00112887247342 	0
1.02051865159 	-0.0024767788166 	0
1.014935562 	-0.00462432451628 	0
1.00353492498 	-0.00794479919797 	0
0.984651961807 	-0.010834962112 	0
0.958215771531 	-0.0108759562255 	0
0.919996838679 	-0.000936359392707 	0
0.867513304843 	0.0201448099734 	0
0.824728792125 	0.0409273061875 	0
0.813175790882 	0.0621400456276 	0
0.836651742024 	0.074224308479 	0
0.896395066688 	0.0645193008065 	0
0.985222100681 	0.0256139600859 	0
1.08229649106 	-0.025339110459 	0
1.14220256924 	-0.0457153656754 	0
1.13707671719 	-0.0360289574861 	0
1.10231135311 	-0.0209513937164 	0
1.07580299709 	-0.0123735591104 	0
1.05796178889 	-0.00792934583476 	0
1.04562426185 	-0.00483766286442 	0
1.03778874208 	-0.00314795586439 	0
1.03217023513 	-0.00181112443695 	0
1.02865836511 	-0.00104259924468 	0
1.02400451776 	-0.00141372579188 	0
1.02467757426 	-0.00285762443887 	0
1.02514862335 	-0.00543127151953 	0
1.02479844299 	-0.00995462640568 	0
1.02214951699 	-0.0176601933949 	0
1.01422340189 	-0.0306353295491 	0
0.996272561506 	-0.0506535504556 	0
0.965035810318 	-0.0728595611242 	0
0.917528158046 	-0.0869227743763 	0
0.861388289101 	-0.0932856695519 	0
0.822157632655 	-0.101989127037 	0
0.813244061864 	-0.114485088654 	0
0.842745256405 	-0.124800888627 	0
0.916510916569 	-0.129971204162 	0
1.01171879255 	-0.134675215224 	0
1.09007197312 	-0.133024341692 	0
1.12184699406 	-0.108186318541 	0
1.109234155 	-0.070771699351 	0
1.08384771478 	-0.0426611993559 	0
1.06555401716 	-0.0265245351379 	0
1.05183664047 	-0.0165688932927 	0
1.04184197489 	-0.0102203364819 	0
1.03540086979 	-0.00639848380966 	0
1.03061457562 	-0.00378502691276 	0
1.02763458436 	-0.00219637279978 	0
1.02555222114 	-0.002208505317 	0
1.02741018902 	-0.0042327681284 	0
1.02987189198 	-0.0077524728614 	0
1.03292930817 	-0.0137254963744 	0
1.03599444035 	-0.0238140230003 	0
1.03698966467 	-0.0410864690864 	0
1.02678066137 	-0.0704873462734 	0
0.994712734467 	-0.109847315758 	0
0.940552575578 	-0.144859598901 	0
0.881112800386 	-0.171824764584 	0
0.84354985856 	-0.19774244013 	0
0.833226903992 	-0.221082400297 	0
0.851201046575 	-0.237417319014 	0
0.908614681163 	-0.237416773175 	0
0.989069301528 	-0.218291730457 	0
1.0543579159 	-0.183035572233 	0
1.07675092588 	-0.135460789676 	0
1.06883314125 	-0.0896108281063 	0
1.05803624726 	-0.0564247706721 	0
1.04962303501 	-0.0353286383787 	0
1.04164590825 	-0.0216192375873 	0
1.03548205587 	-0.0131043865209 	0
1.03135413844 	-0.00796177308564 	0
1.02806487263 	-0.0046622300271 	0
1.02594945531 	-0.00268346989363 	0
1.0273919436 	-0.00221096256538 	0
1.03043759282 	-0.00411799795777 	0
1.03488852951 	-0.00726646195373 	0
1.04128961847 	-0.0125204078775 	0
1.05022174906 	-0.0210475333516 	0
1.0616041314 	-0.035890314887 	0
1.06561405735 	-0.0617080100814 	0
1.03956101685 	-0.106402135694 	0
0.980006315572 	-0.157403992817 	0
0.913980480777 	-0.199084132851 	0
0.871362613535 	-0.233615969503 	0
0.854172893372 	-0.257256766576 	0
0.858087861416 	-0.271184535378 	0
0.893528235906 	-0.26765933241 	0
0.949682868676 	-0.2386196591 	0
1.00166847991 	-0.189511511084 	0
1.02572383194 	-0.134787696996 	0
1.02769987561 	-0.0910355889912 	0