1.01401838123 	-0.00771696570956 	-8.10972057157e-22
1.01536586032 	-0.0120348970766 	-6.35909130972e-22
1.01700968072 	-0.0168829275424 	2.6965894567e-22
1.0190027535 	-0.022599631097 	-2.88680488628e-23
1.02099213308 	-0.0293863318373 	-2.59649563711e-22
1.02248148925 	-0.0376136267333 	-1.80350752062e-22
1.02246492642 	-0.0472689827259 	-2.00823706982e-22
1.01907140855 	-0.0574146531524 	-1.1490552327e-21
1.01025758654 	-0.069646730197 	1.7298404096e-20
0.991304245355 	-0.0769306921182 	1.44695676655e-21
0.962882585843 	-0.0732791023034 	7.68363136614e-23
0.932192480701 	-0.0496647223672 	1.93795830759e-21
0.916374976052 	-0.00655722900843 	-5.40848147787e-24
0.927710126773 	0.0379042732913 	2.04943350204e-22
0.955398864889 	0.0644826541401 	-1.65148571907e-21
0.982753489912 	0.0717149630347 	1.9995311107e-21
1.00225279333 	0.0674207601622 	2.17776436326e-20
1.0125755161 	0.0569339358636 	-1.78836538265e-21
1.01773813182 	0.0483066484206 	-1.91618880562e-21
1.01916434244 	0.039060597999 	4.08171854246e-22
1.01881121852 	0.0308132982134 	1.05429468529e-21
1.01770969598 	0.0238500317645 	-4.43216716932e-23
1.01635925979 	0.0178546334751 	-5.44729976933e-22
1.0151232009 	0.0127530764466 	1.32103112448e-21
1.01406263882 	0.0081233342904 	1.33049290059e-21
1.01827233007 	-0.00808217993037 	2.34633229043e-22
1.02007989396 	-0.0125845510705 	4.95011034178e-22
1.02250839084 	-0.0178343722033 	1.89555694818e-22
1.02551368445 	-0.0240130784116 	-7.43922125104e-23
1.02892308253 	-0.0315651081945 	4.10360828075e-22
1.03224640981 	-0.0411716210525 	-1.61341906778e-22
1.03441473264 	-0.053379979188 	2.51336914422e-22
1.03344725187 	-0.0693050136676 	1.18686110413e-22
1.02523399842 	-0.0894744827197 	-4.66207275532e-22
1.00224416035 	-0.110034768538 	-2.09366171967e-21
0.955036252097 	-0.12151366858 	-3.28962613479e-21
0.886053698824 	-0.0942112560445 	9.75958367925e-21
0.844757636327 	-0.00826295376483 	1.67724973267e-22
0.878247621793 	0.0800337933707 	1.00728691319e-20
0.942564797372 	0.113183476011 	-9.23785761217e-21
0.989507835372 	0.107722556594 	-2.60280929369e-21
1.01445030297 	0.0910420907871 	-6.1623702399e-22
1.02575380673 	0.0730782098251 	-4.15136307086e-22
1.02919226965 	0.0575866761211 	-1.04340682212e-21
1.02904597395 	0.0450403787255 	5.07080278491e-22
1.02718947902 	0.0347519476613 	-1.1093278491e-21
1.02471187659 	0.0264224823834 	2.00373413869e-22
1.02231493992 	0.0195476391359 	-9.81371063316e-22
1.02024409509 	0.0137253680518 	-1.22944935154e-21
1.01864604331 	0.00876022365059 	-6.95620937469e-23
1.02256648839 	-0.00813990653757 	5.21198590189e-24
1.02495037946 	-0.0125058572968 	9.11143581359e-23
1.02822780337 	-0.0178368346924 	-3.79542483713e-23
1.03243002199 	-0.0241097038533 	1.01243078257e-24
1.03764322497 	-0.0318912082067 	5.98862205985e-23
1.0436382412 	-0.0421401567741 	-6.25436148955e-23
1.04973750375 	-0.0561449592516 	7.79981663135e-23
1.05433998722 	-0.076224029116 	-2.97771796267e-23
1.05339493857 	-0.105601751431 	5.97424421499e-23
1.03664405686 	-0.149342763995 	5.38524448648e-22
0.976183071709 	-0.204534399691 	1.10819747963e-20
0.817510613697 	-0.217986711319 	-1.98693620531e-21
0.667427106852 	-0.0128337626937 	-2.66700382489e-21
0.80289205443 	0.197131275965 	-3.93227297601e-21
0.954239037715 	0.196872283958 	1.40530344681e-20
1.01764998037 	0.152177448144 	-9.64015593015e-22
1.0397950321 	0.113413230397 	-7.83444066085e-23
1.04588018659 	0.0852078905599 	1.7965611214e-21
1.04516881189 	0.064291096036 	6.92402338686e-22
1.04156775531 	0.0487382400619 	-2.70017070338e-22
1.03704338035 	0.0368016634365 	-2.71395765631e-22
1.03262308773 	0.0275603712111 	4.00402211152e-24
1.0288421658 	0.0201698582125 	6.51771569363e-22
1.02576375363 	0.0139705997786 	-6.86025197876e-22
1.02344784818 	0.0089297893392 	-6.93753230489e-22
1.02680531722 	-0.00775644071684 	-1.25768055952e-24
1.02972100736 	-0.0119113464948 	3.69646794678e-23
1.03378578186 	-0.0168716637172 	1.23781295098e-23
1.03924614665 	-0.0227370198825 	9.8823776856e-23
1.04631670611 	-0.0299690894503 	1.25358838885e-22
1.05534613384 	-0.0396945389951 	7.4762481179e-23
1.06654469488 	-0.053417236449 	-5.12812688886e-22
1.07990048875 	-0.0742091249039 	-4.7488607382e-22
1.09461056595 	-0.108307941311 	8.66834357545e-22
1.10632869213 	-0.170163895487 	-1.90142117493e-21
1.0956896664 	-0.298132243725 	1.69483531595e-21
0.885486137859 	-0.60535739708 	6.96852491136e-22
0.849840353023 	0.562422754812 	1.68512413437e-21
1.0546343563 	0.294812876906 	-1.50693206118e-22
1.07860326447 	0.183110250606 	-2.64427433614e-23
1.07902661774 	0.125364541998 	-2.9513175746e-24
1.0727079935 	0.0899602033037 	2.96053017056e-22
1.06429651466 	0.0658405154159 	-1.46436195143e-22
1.05566918998 	0.0487520479695 	9.48885663626e-23
1.04775112405 	0.0361757271245 	1.51637956288e-22
1.0409791609 	0.0268273828128 	9.33529084975e-23
1.03552521388 	0.0194755259802 	-1.07997546385e-22
1.03133920711 	0.013461745086 	2.87633085822e-23
1.02827629932 	0.00854810282368 	-1.65527439775e-23
1.03079096042 	-0.00689298380941 	2.65270065745e-23
1.03412050283 	-0.0108097034929 	-6.83962908471e-23
1.03881736621 	-0.0150600268187 	-7.05380887238e-23
1.0453407786 	-0.0200391098644 	1.82495810947e-24
1.05396882766 	-0.0260310871218 	-1.10882615564e-22
1.06566433606 	-0.033737068002 	-7.77967686827e-24
1.08157372036 	-0.0443033520191 	-8.95819971647e-24
1.10374373598 	-0.0602207761503 	4.44586116788e-23
1.13635119481 	-0.0870398630181 	-7.05888930413e-22
1.18799315614 	-0.136982306895 	-3.1940841905e-22
1.28895991267 	-0.235959609236 	2.66473598052e-22
0.0376044948389 	0.00138917415393 	-1.60530114131e-21
1.22279353006 	0.259077023398 	-1.80040789778e-22
1.15400453294 	0.170024530437 	2.27418145304e-22
1.12292789292 	0.117582094631 	5.55867677571e-22
1.10149844024 	0.0836220303186 	-1.5132658347e-22
1.08423261516 	0.0604414849993 	-1.57415373949e-24
1.06991737473 	0.0442282006957 	1.19772341235e-24
1.05822903677 	0.0325547375037 	1.45272963796e-23
1.04901536294 	0.0239839680171 	-5.32595088068e-28
1.0418425581 	0.0173590609226 	-3.48047769868e-23
1.03657266809 	0.0120956753435 	-4.28221626059e-23
1.03281888337 	0.00751910297705 	4.23825101422e-23
1.0341496514 	-0.00610597941756 	-5.69959166198e-24
1.03780193661 	-0.00915851569604 	9.30545659224e-23
1.04299983606 	-0.0126696309417 	4.4376803446e-23
1.05014883865 	-0.016432137029 	1.69058414483e-23
1.05959559324 	-0.0206585158189 	1.92575316656e-22
1.07268800102 	-0.0253041520323 	2.82716752943e-22
1.09091463742 	-0.0304997532834 	-1.63110557206e-21
1.11784847814 	-0.0367394132507 	4.8407652082e-22
1.16011941827 	-0.0453202681059 	2.11366456505e-21
1.23178569555 	-0.0591427653449 	-1.29384812138e-20
1.34434231099 	-0.0784101441311 	3.56673780253e-20
0.146709201724 	-0.0494014884306 	1.88462018685e-21
-4.3700192332e-05 	-0.0166826023996 	-4.39141727927e-22
0.112546356104 	-0.00389484478615 	9.42183229648e-23
1.25858216248 	0.141559602069 	-2.48882599688e-20
1.20225392322 	0.123972511098 	7.63890137912e-21
1.15850291453 	0.0921329887293 	7.24243085246e-22
1.12659656383 	0.0664986350465 	1.12944442195e-22
1.10169119412 	0.0479668824722 	9.34700004676e-22
1.0823414649 	0.0350129064559 	-1.55641970794e-22
1.06720903902 	0.0257777591566 	-9.82362355257e-23
1.05582052167 	0.0190594994298 	-4.94976313005e-24
1.04719902164 	0.0139132462186 	3.40664011115e-23
1.04091200358 	0.00967397139348 	3.18243187949e-23
1.03654404309 	0.00624936563432 	2.70594230845e-23
1.0370152536 	-0.00497025191834 	3.14045066194e-23
1.04072909547 	-0.00734070535542 	-5.3248331425e-22
1.04618283035 	-0.0100345688606 	6.09711320659e-22
1.05351147136 	-0.0125669177654 	-4.86282085685e-24
1.06295081515 	-0.014998333485 	-4.56500417657e-22
1.07555655725 	-0.0166048180103 	-4.5821671142e-22
1.09273056011 	-0.0162760904096 	1.28197249518e-21
1.11752035478 	-0.0115953406433 	4.36581598502e-21
1.15610227412 	0.000933598390503 	1.13880222254e-21
1.22471409107 	0.0268983443612 	4.30921803586e-21
1.32046618916 	0.0740323764242 	4.13136528607e-21
0.469594712138 	-0.0108574146798 	-5.96492116793e-21
-0.174847932083 	-0.0857872907359 	-3.43281916816e-21
0.110105817852 	-0.0171773694382 	-4.27337371036e-21
1.2022770979 	0.0764820434316 	-1.59573109669e-21
1.22657820451 	0.0809863925614 	-2.55008363273e-21
1.18253038092 	0.0582949293789 	-8.63200690305e-23
1.14449091045 	0.0414617419411 	-3.58487229436e-21
1.11422174723 	0.0298437018549 	-1.00876793009e-21
1.09108240218 	0.022095954103 	2.43257844743e-22
1.07362603717 	0.0166118251216 	2.76876176696e-22
1.06063846552 	0.0125703899709 	1.98987620422e-24
1.05106535767 	0.00944754126611 	-1.91378285164e-22
1.04410109065 	0.00661020865759 	1.30125795028e-22
1.03945926773 	0.00441349484999 	8.18258637785e-23
1.03930422056 	-0.00371055126892 	-3.94983975475e-22
1.04301975784 	-0.00552749188621 	-1.03549910273e-21
1.0484147928 	-0.00742464786046 	-7.02088805045e-22
1.05555812725 	-0.00900734142201 	1.00416271147e-22
1.0642236528 	-0.0101567891314 	-8.53328030497e-22
1.07521313233 	-0.00982361010435 	5.52632432075e-22
1.08818394845 	-0.00598928377957 	-1.37082241411e-21
1.10430234858 	0.00570498625615 	-8.76087220785e-23
1.12922576041 	0.0348364215795 	-2.80870550946e-21
1.15820330357 	0.0922580253494 	-3.49560756605e-21
1.20599450612 	0.214693406499 	7.66221902731e-21
0.61223715628 	0.324322500497 	1.44345759966e-20
-0.170089627068 	0.300805243005 	5.67998254258e-22
0.193152485662 	0.171561840904 	6.15953474264e-21
1.16473200312 	0.0557578325947 	-1.20854866055e-21
1.25535545594 	0.0362517717866 	-1.99540743881e-21
1.19969308894 	0.0177536458337 	-1.64241901399e-21
1.15325407382 	0.0102672685588 	2.99050156371e-22
1.11993482335 	0.00795801339371 	1.53072150791e-21
1.0951158309 	0.00668535100186 	-5.46419507682e-22
1.07635105168 	0.00605886908915 	7.36864071712e-22
1.06290157429 	0.00527455495178 	-7.07546099899e-23
1.05306646289 	0.00446145239571 	2.90665800811e-22
1.0460044019 	0.00333280698729 	3.88405463713e-22
1.04131394941 	0.00245103827405 	3.83895923355e-23
1.04086688599 	-0.00245287747966 	1.11523207847e-21
1.0446702292 	-0.00369037869143 	9.25690186027e-22
1.04986133988 	-0.00497175222337 	-3.67498958204e-22
1.05674616963 	-0.00596194339463 	-1.45953114035e-22
1.06448733205 	-0.00660268536812 	4.73890522588e-22
1.0732907112 	-0.0059505608197 	1.71793990428e-22
1.08149548767 	-0.00230375295839 	-2.14106058524e-22
1.08515029922 	0.00777927977133 	5.9380151993e-22
1.08563534811 	0.0334156504717 	1.9385104115e-20
1.06778362802 	0.0929337687875 	1.56345490414e-21
1.01794641266 	0.230068250639 	3.85846652746e-22
0.485863596698 	0.426130592214 	2.49647536638e-21
-0.049498034588 	0.500649809823 	-3.48148384015e-22
0.464500442797 	0.231892945819 	1.49593409524e-21
1.2154590486 	-0.0136493800996 	-1.85644017525e-21
1.28043929103 	-0.0336504541766 	2.56476905579e-21
1.20062861031 	-0.0325843348438 	2.84319066633e-20
1.150576552 	-0.0223810883406 	5.4257507303e-22
1.11824889251 	-0.0163754569749 	2.79758598286e-21
1.09289645625 	-0.00885648604218 	-2.74539289224e-22
1.07513292954 	-0.00459190292416 	-5.73901211371e-22
1.06238251369 	-0.00193748648236 	9.67087690263e-23
1.0530523121 	-0.000414006631917 	2.26270812708e-22
1.04649548959 	0.000276593389831 	-3.76767777177e-22
1.04191604959 	0.000536413611528 	-2.62918710979e-22
1.0418835654 	-0.00116477087116 	-1.36734679956e-21
1.04569261185 	-0.00178656142103 	-5.31280797393e-22
1.05074891491 	-0.00257225649884 	-1.00226579055e-22
1.05754079421 	-0.00326784387267 	-3.54006793992e-22
1.06515026076 	-0.00402455779826 	2.28748512897e-22
1.07277645769 	-0.00372347588401 	-9.73170733783e-22
1.07699163339 	-0.00498007098375 	-7.59611150018e-22
1.07565695425 	-0.00285972945561 	-6.67023134772e-22
1.05733149364 	0.00470577190099 	1.25527611058e-21
1.00573198091 	0.0224836641428 	-1.50609135502e-22
0.847566958667 	0.110784917349 	3.29875343229e-23
0.257661119072 	0.319711137211 	1.79733882417e-22
0.164167195674 	0.224372396296 	-1.20658008038e-21
0.793168135995 	-0.0732972190068 	5.83392367756e-21
1.25259659432 	-0.182544746907 	-3.99595925476e-21
1.26548661859 	-0.135351116671 	1.83727815349e-21
1.17561824508 	-0.0887256472361 	4.18445221668e-21
1.13453037289 	-0.0568486390402 	-1.01179702357e-21
1.1040709954 	-0.0350116282401 	1.10216168899e-21
1.08456567726 	-0.0236433746301 	8.66007112003e-22
1.07051143456 	-0.0138601018762 	-1.38367613286e-21
1.059258298 	-0.00802857314724 	2.24463632943e-22
1.05116139984 	-0.00451866476121 	5.79577146419e-23
1.04556499345 	-0.0023755031878 	4.23373337496e-22
1.04153792918 	-0.00112975071734 	1.64920383104e-22
1.04212129318 	3.84594590988e-05 	1.62815266964e-21
1.04613111693 	0.000266380488171 	-3.08938813921e-21
1.05120217685 	-4.10053038717e-05 	1.70114248388e-21
1.05786992674 	0.00036065894321 	6.78050599401e-24
1.06579866838 	-0.00152371747295 	1.95212642131e-21
1.07402295652 	-0.00412985679085 	-4.7488428725e-22
1.08128216178 	-0.00807622235482 	-1.097084715e-21
1.08230076118 	-0.0181426485591 	5.44643121164e-23
1.06637895541 	-0.0373694834336 	1.08013884448e-22
1.00316760903 	-0.0729979762239 	-5.062672644e-22
0.71428512582 	-0.0313806103145 	3.74327922128e-21
0.28555399315 	-0.0383359559457 	3.59914528172e-23
0.431348354435 	-0.237211978872 	-4.2738967124e-22
0.92116366995 	-0.390531823431 	1.34644728914e-22
1.18932356188 	-0.333222293953 	-9.78749187809e-21
1.17160197805 	-0.20834099676 	1.16788158962e-21
1.12379922952 	-0.1254477851 	1.27784214609e-21
1.10256762909 	-0.0788163238534 	1.28816035329e-22
1.08419637046 	-0.048851298308 	-2.32802843123e-21
1.07109930183 	-0.0299324335612 	-6.3391258312e-22
1.06175828571 	-0.0192556489801 	1.64730207082e-21
1.05405967565 	-0.0121179893753 	-1.02079605445e-24
1.04791857357 	-0.00708649245743 	-1.17027556007e-21
1.04357579851 	-0.00421180896092 	1.76100483196e-21
1.04031912346 	-0.00222221494084 	-3.38307142984e-23
1.04177537124 	0.00140306806823 	-1.19752704448e-21
1.04595386935 	0.00260687454673 	3.81217725108e-23
1.05042770466 	0.00357808885747 	3.27636444637e-21
1.0577815425 	0.00280021186227 	-1.439528071e-21
1.06723267238 	0.00215453108281 	1.95651350588e-21
1.07823087816 	0.000591205385109 	-1.9668551166e-21
1.09177958484 	-0.00699275969425 	2.13221087077e-22
1.10425849412 	-0.0219759987637 	3.51301545708e-24
1.11918918649 	-0.0644728789394 	-3.56182224097e-22
1.06027103167 	-0.138828920092 	6.02009041654e-22
0.706016739366 	-0.240669714672 	-6.26150982983e-22
0.438019715654 	-0.381361007187 	-1.16097227667e-22
0.561081864935 	-0.469395300125 	-2.68120025588e-22
0.885652518821 	-0.462423650465 	-1.95832170314e-21
1.04497153702 	-0.354058545999 	8.17777758999e-23
1.05589384288 	-0.216989831407 	-2.32727769596e-21
1.05954826263 	-0.132421059491 	1.80922342912e-21
1.06266777168 	-0.0824038839006 	2.23849542881e-23
1.05939645719 	-0.0516580528735 	3.65283567014e-22
1.05647710585 	-0.0318737498639 	-2.2573488025e-21
1.05155388033 	-0.0198275000315 	1.77284293511e-21
1.04761861374 	-0.0124574980512 	-3.66569974221e-22
1.04404129911 	-0.0079016934864 	-2.23415419165e-21
1.04115051187 	-0.00523209682256 	-2.91658344385e-23
1.03863396755 	-0.0028156830413 	3.74039675311e-22
1.04039447868 	0.00293642341796 	9.99932388617e-22
1.04477432608 	0.00420464011284 	-5.30382483805e-22
1.04924424616 	0.00520918725927 	-3.1994753802e-22
1.05711677696 	0.0075065500341 	3.35704689169e-22
1.0669732237 	0.00827563920396 	2.54496554356e-22
1.08247125842 	0.0102941183405 	7.60633201719e-22
1.10083866298 	0.00537895077973 	1.10090135924e-22
1.13037253959 	-0.00142509298963 	-6.77497183985e-23
1.18189908955 	-0.0344658570301 	3.64683547264e-23
1.17533733263 	-0.0858423493734 	1.63005804941e-22
0.874198007413 	-0.252406232145 	-8.52277642374e-22
0.544203423704 	-0.472513378217 	-8.71504555666e-22
0.56135464815 	-0.507395646805 	-4.47393163533e-22
0.78782930784 	-0.409967223536 	5.09093477751e-22
0.903460791172 	-0.288109345036 	5.67942525769e-22
0.958763171299 	-0.173226132201 	-3.81115143817e-23
0.998481996904 	-0.10727558938 	-6.05132292868e-23
1.02707794541 	-0.0666150787595 	3.39268385728e-23
1.03679696349 	-0.041042512444 	1.01723728502e-22
1.04287443988 	-0.0263125199151 	5.29582789423e-22
1.04374424556 	-0.0167924145541 	1.81556062313e-22
1.04212724157 	-0.0107436047431 	8.18310460902e-23
1.04025834331 	-0.00695156726096 	-2.54468551508e-22
1.03874517797 	-0.00488179739109 	-6.06581000353e-22
1.03693145708 	-0.00273788052872 	-3.42043457871e-22
1.03865004249 	0.00403050399504 	-2.71927574159e-21
1.04179991938 	0.00584460563305 	8.89518604963e-22
1.04705987777 	0.00850920866291 	-8.52129751716e-24
1.05460413522 	0.011402975987 	6.61281003196e-23
1.06401859148 	0.0162830971116 	-4.79636379642e-22
1.08049490909 	0.0224133351237 	-2.86351691824e-22
1.09985561635 	0.0262957732417 	1.06687600165e-21
1.13433307761 	0.04232948061 	3.40664763939e-23
1.21879659768 	0.0420872167073 	5.31407934846e-23
1.23363282068 	0.0519981374815 	-2.91872104044e-22
1.06853433381 	-0.00669301735114 	-2.51850946375e-21
0.752719867038 	-0.186447613526 	1.43781861695e-23
0.579244227511 	-0.320282857741 	-3.29334708155e-22
0.640107620627 	-0.309477428972 	-1.53118533102e-22
0.783619359591 	-0.171341992824 	7.46292669214e-23
0.880919945329 	-0.084603773084 	-2.4499920587e-23
0.949408023039 	-0.0472860521332 	3.4110641928e-24
1.00306439673 	-0.0302329842703 	1.32822458549e-23
1.02468390206 	-0.019168903836 	-2.12462973809e-24
1.03444681655 	-0.0143618339643 	6.72868029415e-23
1.03868017893 	-0.0105974747934 	-7.13070824673e-23
1.03923835653 	-0.00747030515135 	2.69265102184e-23
1.03820733577 	-0.00533729254225 	2.4896624693e-23
1.03647502009 	-0.00369850691887 	3.58771576356e-22
1.03521484981 	-0.00275657620538 	9.29560519509e-23
1.03624563553 	0.00409018514497 	-5.72380325953e-22
1.03911455862 	0.0070375761948 	-6.11728147585e-22
1.04364503083 	0.0107045982468 	1.79751192437e-22
1.04900476485 	0.0153785955445 	-1.63192219487e-23
1.05730294558 	0.0224380930145 	1.7413825164e-22
1.06981279795 	0.0317329689846 	4.90978336201e-22
1.08494541512 	0.0466675815036 	4.24128874285e-23
1.11525824276 	0.0694377161873 	-7.76427643127e-22
1.16990463284 	0.112982412642 	8.92763663579e-22
1.19320334968 	0.178304969886 	5.82766730983e-22
1.10556765799 	0.217496698135 	-1.01292064625e-21
0.902078894962 	0.171993373214 	0
0.702582193534 	0.0726558176633 	1.01851377617e-36
0.638582702726 	-0.00356036739167 	1.61468311897e-25
0.704585388069 	-0.00751724058417 	3.96924895681e-22
0.832794175107 	0.0234578992282 	-3.43299504463e-22
0.939202461067 	0.0228327567006 	-3.39466382697e-22
0.993644490171 	0.0102984838441 	4.93869273306e-22
1.02087022903 	0.00433762861887 	-2.80009928792e-23
1.03258368774 	0.000354236635721 	-1.89218472818e-22
1.03681865947 	-0.00209842971533 	3.10969384049e-23
1.03791722494 	-0.00287406216238 	4.96922697425e-23
1.03733264596 	-0.00282187198797 	6.8673974312e-23
1.03578281353 	-0.00233264432318 	-1.58668652644e-22
1.03428456763 	-0.00151338155113 	-1.52484266407e-22
1.03387096626 	0.00471592648646 	0
1.03602560565 	0.0077285465206 	0
1.03923633098 	0.0118041049681 	0
1.04300941876 	0.0174416437611 	0
1.04841384881 	0.0252936421636 	0
1.05586049886 	0.0375698880762 	0
1.06441806216 	0.056232215577 	0
1.07865656194 	0.0837541601181 	0
1.10428339885 	0.134879738191 	0
1.11835744127 	0.216417702132 	0
1.06933534325 	0.294192896539 	0
0.927417471174 	0.318856663833 	0
0.762483209589 	0.291233864629 	0
0.689256810081 	0.239187976783 	0
0.725582675759 	0.195353642206 	0
0.847783741636 	0.158271085332 	0
0.9681978041 	0.107699331492 	0
1.01904247332 	0.0582054422694 	0
1.03615889814 	0.0273374543015 	0
1.04137247452 	0.0129602572928 	0
1.04159125292 	0.00450023944442 	0
1.04024997912 	0.000377079137885 	0
1.03818179469 	-0.00125526634404 	0
1.03586857546 	-0.00162399729446 	0
1.03387878489 	-0.00120614552421 	0
1.03133367309 	0.00453567523416 	0
1.03264318176 	0.0073273109479 	0
1.03443218274 	0.0111479668437 	0
1.0364490442 	0.0167344211372 	0
1.03847571851 	0.0245335111232 	0
1.04035820229 	0.0371603849721 	0
1.04190988328 	0.0566158774383 	0
1.040961844 	0.0851231333625 	0
1.03752202907 	0.134223902521 	0
1.02811748683 	0.210879560414 	0
0.996322674493 	0.304770235981 	0
0.898229093878 	0.371738414402 	0
0.777001061654 	0.3834848311 	0
0.731849238163 	0.355333220288 	0
0.780224178555 	0.306734438357 	0
0.916154035117 	0.233183051659 	0
1.04088427109 	0.146263922898 	0
1.07462438188 	0.0762795769189 	0
1.06726283509 	0.0362146159337 	0
1.05652572682 	0.0175667503924 	0
1.04929016867 	0.00646869599764 	0
1.04379054795 	0.00151892806289 	0
1.03931249453 	-0.000700116124932 	0
1.03589777311 	-0.00132396575782 	0
1.03339909249 	-0.00113596514368 	0
1.02899972997 	0.00371687430927 	0
1.0296615237 	0.00591633774852 	0
1.03020556434 	0.00879360376126 	0
1.03031757287 	0.0130814888553 	0
1.02886741627 	0.0195405891009 	0
1.02507913007 	0.0298578146162 	0
1.01784589076 	0.0469402265264 	0
1.00269223253 	0.0741503526359 	0
0.977584514856 	0.117234006523 	0
0.941942436422 	0.18030138014 	0
0.90284071396 	0.269575695198 	0
0.840221322295 	0.352439306178 	0
0.773114051289 	0.379404871707 	0
0.764303038154 	0.355131096844 	0
0.846206141866 	0.289688201486 	0
1.01131825051 	0.186853663952 	0
1.12714582434 	0.0945175728401 	0
1.12831582205 	0.0434998307327 	0
1.09454886997 	0.0210684921191 	0
1.07042729728 	0.00948729830099 	0
1.05647440211 	0.0022827246403 	0
1.04690896211 	-0.000165620619092 	0
1.04053938989 	-0.0015605655499 	0
1.03602062953 	-0.00168272088935 	0
1.03306329411 	-0.00139891627519 	0
1.02717286943 	0.00234643425688 	0
1.02744193702 	0.00358897373027 	0
1.02712146827 	0.00498515949283 	0
1.02559588142 	0.00683068334939 	0
1.0212472173 	0.00976364206513 	0
1.0124901845 	0.0142108200722 	0
0.996551177363 	0.0228532686324 	0
0.970170397898 	0.0384942647625 	0
0.93025883274 	0.0644382312307 	0
0.872964676657 	0.104900156266 	0
0.819958439636 	0.164981553554 	0
0.783780370027 	0.228120893396 	0
0.774511455588 	0.251499959859 	0
0.823702602714 	0.215618529543 	0
0.951636970922 	0.128229612897 	0
1.11354509886 	0.0351577489165 	0
1.18306479111 	-0.00812563726606 	0
1.14845332899 	-0.0119706186987 	0
1.10270082438 	-0.00773744726061 	0
1.07589330835 	-0.00651987157472 	0
1.05927805576 	-0.00620277567266 	0
1.04784857675 	-0.00465083144266 	0
1.04092894631 	-0.00399951295278 	0
1.03577677356 	-0.00287828290494 	0
1.03256914287 	-0.00201981308147 	0
1.02634810275 	0.000769360878832 	0
1.02665391383 	0.000874410680224 	0
1.02636747088 	0.000489178311336 	0
1.02479232956 	-0.000709935607144 	0
1.02024716734 	-0.00310855702734 	0
1.01061367087 	-0.00769808205165 	0
0.991811865961 	-0.0144685184218 	0
0.96022157496 	-0.0230152692686 	0
0.909898754995 	-0.0263466096496 	0
0.839124343713 	-0.0189081803511 	0
0.781654022999 	-0.00139157238443 	0
0.761721497765 	0.0121477470043 	0
0.795752701935 	0.0077598493349 	0
0.898678057846 	-0.0279998133551 	0
1.03921282316 	-0.087444053874 	0
1.1532221816 	-0.113102822454 	0
1.17454906447 	-0.0878068323274 	0
1.13044536703 	-0.0544361143255 	0
1.09174330186 	-0.0331729748666 	0
1.07058326903 	-0.0218185457184 	0
1.05585911994 	-0.0149858206406 	0
1.04542547098 	-0.0100590315602 	0
1.03922122758 	-0.00710367631796 	0
1.03433224251 	-0.00457003439423 	0
1.0313448846 	-0.00287232235853 	0
1.02658646767 	-0.00040057386975 	0
1.02756773309 	-0.00119967390538 	0
1.02851676138 	-0.00313816467458 	0
1.02912498019 	-0.00698635003504 	0
1.02814496865 	-0.0141197658409 	0
1.02411048818 	-0.0270273009446 	0
1.01198679596 	-0.0491239475566 	0
0.982481157441 	-0.0835238163992 	0
0.924617890312 	-0.118101183389 	0
0.845381780269 	-0.142467202228 	0
0.788730327027 	-0.159973177271 	0
0.776730384644 	-0.182784630645 	0
0.820802673171 	-0.206340657342 	0
0.927833506154 	-0.221597666628 	0
1.04233594509 	-0.219833672935 	0
1.11415677579 	-0.182411282119 	0
1.122933565 	-0.123450993769 	0
1.09388562087 	-0.07619222468 	0
1.07101833804 	-0.048466367041 	0
1.057963378 	-0.0316235987568 	0
1.04766500868 	-0.0207443025661 	0
1.04005099098 	-0.0137287600687 	0
1.03538941488 	-0.00919993920455 	0
1.03160211531 	-0.00581431899835 	0
1.02930703976 	-0.00354203325697 	0
1.02743976442 	-0.000869664872346 	0
1.02954355583 	-0.0020291402571 	0
1.0324420792 	-0.00464423092064 	0
1.03638214033 	-0.00955116365967 	0
1.04115395898 	-0.0181178496943 	0
1.04702591587 	-0.0338090285989 	0
1.04993156874 	-0.0608209675244 	0
1.0298806759 	-0.10828126389 	0
0.968406013944 	-0.166204661417 	0
0.8809078733 	-0.214195173382 	0
0.820559697342 	-0.251588140096 	0
0.806198443866 	-0.283648556287 	0
0.834700353335 	-0.306278104914 	0
0.912625421278 	-0.306019564025 	0
0.994738199525 	-0.268091836969 	0
1.04662494535 	-0.202823727659 	0
1.06181508286 	-0.13636817983 	0
1.05321194388 	-0.0866110005951 	0
1.04653116209 	-0.0557660485169 	0
1.04205779266 	-0.0355253944078 	0
1.03728872717 	-0.022477261048 	0
1.03341591985 	-0.014449715573 	0
1.03079424249 	-0.00934499526368 	0
1.02845832057 	-0.00586706443672 	0
1.02697916599 	-0.00355339435127 	0
1.02834759041 	-0.000745985568954 	0
1.03149339178 	-0.00174090407081 	0
1.03615524282 	-0.00381058650687 	0
1.04287934507 	-0.00763735779661 	0
1.05282009323 	-0.0137727876287 	0
1.06769954108 	-0.0254292599222 	0
1.08725026999 	-0.0443092174413 	0
1.08803027929 	-0.0821806964553 	0
1.03172341823 	-0.148047456759 	0
0.930832017797 	-0.217514547849 	0
0.856175370201 	-0.270719785911 	0
0.831428668571 	-0.304977463709 	0
0.841089618993 	-0.322528079468 	0
0.883891857439 	-0.31176846536 	0
0.932102321141 	-0.25952760525 	0
0.975109340489 	-0.190219580923 	0
1.00350298771 	-0.128362548721 	0
1.0125262363 	-0.0827215376659 	0
1.01972805407 	-0.0525474062255 	0
1.02465665199 	-0.0319768523123 	0
1.02646739571 	-0.0194276829951 	0
1.02690680452 	-0.0119771172619 	0
1.0266082714 	-0.00747750010089 	0
1.02574138949 	-0.00458624601248 	0
1.02498505869 	-0.00272896392856 	0
1.02887891481 	-0.000142142592894 	0
1.03254630349 	-0.000456582504235 	0
1.038187352 	-0.00098611697856 	0
1.04626778885 	-0.00226601004035 	0
1.05892299883 	-0.00386095942212 	0
1.07798229937 	-0.00763413733746 	0
1.10669501566 	-0.0121180586792 	0
1.13213637684 	-0.0234586475236 	0
1.10331786755 	-0.0632397103166 	0
1.00543157588 	-0.13218902018 	0
0.908272700341 	-0.205528702928 	0
0.855864545528 	-0.250799296039 	0
0.838463866225 	-0.263535319626 	0
0.846611245866 	-0.240003826344 	0
0.869784288322 	-0.187479249492 	0
0.911684591853 	-0.132868524988 	0
0.953853160576 	-0.0848818033689 	0
0.977920655796 	-0.0520175529266 	0
0.995869899159 	-0.0313835682775 	0
1.00938718184 	-0.0177353235903 	0
1.01757172219 	-0.0104047416767 	0
1.02184306842 	-0.00625690363416 	0
1.02357312985 	-0.00389935554823 	0
1.02389697737 	-0.00235582969116 	0
1.02369949372 	-0.00140300583242 	0
1.02873942275 	0.000941370372222 	0
1.0323322205 	0.00162731465616 	0
1.03803633889 	0.00284514619545 	0
1.0460046804 	0.00431598672709 	0
1.05860742222 	0.00714092196339 	0
1.07678665228 	0.0110316083984 	0
1.10405164021 	0.0189589405021 	0
1.13891786191 	0.0325946776462 	0
1.14077907454 	0.0385051361059 	0
1.07628638418 	0.0123220149696 	0
0.977912348176 	-0.0425872796217 	0
0.891816853396 	-0.0824623982267 	0
0.835756066584 	-0.0920401681228 	0
0.814982148709 	-0.0781943634809 	0
0.827623635391 	-0.0538168620747 	0
0.871002596013 	-0.0299996051973 	0
0.92268418419 	-0.00656427894975 	0
0.95946633565 	0.00517921967608 	0
0.985099555147 	0.00698141372016 	0
1.00359973406 	0.00563502710736 	0
1.01484745472 	0.00330913881877 	0
1.02041992842 	0.00172732009061 	0
1.02269784678 	0.000712782595698 	0
1.02333796184 	0.00025863245405 	0
1.02329236495 	1.67841576603e-05 	0
1.02777988229 	0.00213409912104 	0
1.03086095652 	0.00367598981615 	0
1.03578584989 	0.00623177157133 	0
1.04242692001 	0.00992154679898 	0
1.05280138435 	0.0161250346757 	0
1.06698923119 	0.0257643561488 	0
1.08621103745 	0.0415792439197 	0
1.1127749979 	0.0692985702733 	0
1.12457061221 	0.105214798183 	0
1.08988736718 	0.126372514895 	0
1.00954351357 	0.123697808724 	0
0.914145051451 	0.115998383179 	0
0.841325502056 	0.110172364544 	0
0.812575406465 	0.101107918954 	0
0.822093773276 	0.0905057303104 	0
0.862178532409 	0.0839680590668 	0
0.917966664522 	0.0797644011234 	0
0.964256681428 	0.0675730513979 	0
0.994851219458 	0.0472146046034 	0
1.01285770296 	0.0287234256888 	0
1.02122232533 	0.0165711745788 	0
1.02421422743 	0.00933167045063 	0
1.02479510705 	0.00507422221409 	0
1.02445877003 	0.00266264649413 	0
1.02387198291 	0.00130797757359 	0
1.02611906112 	0.00270065559418 	0
1.02834403272 	0.00467581091 	0
1.03179720511 	0.00798653695691 	0
1.03616845963 	0.0131028334691 	0
1.04276885588 	0.0216127277612 	0
1.05130273105 	0.035228259164 	0
1.06054571659 	0.0562137142671 	0
1.07256933832 	0.0894913977083 	0
1.08086695857 	0.135272361525 	0
1.05703253474 	0.181337538274 	0
0.990108536283 	0.213881149748 	0
0.908282649554 	0.231232036312 	0
0.850150355572 	0.230351194926 	0
0.831780282745 	0.21402785142 	0
0.842145524467 	0.19090680205 	0
0.880129772348 	0.166044933435 	0
0.939101969025 	0.140588449951 	0
0.992177417724 	0.107132312024 	0
1.02382014783 	0.0691843949043 	0
1.03467152304 	0.0404446961587 	0
1.03458561279 	0.0234408280405 	0
1.03206744888 	0.0134855713289 	0
1.0293530997 	0.0076001145965 	0
1.02708522228 	0.00413971559776 	0
1.02535868426 	0.00215159651493 	0
1.02425884359 	0.00235792587221 	0
1.02547024028 	0.00425180543671 	0
1.02710787924 	0.00752932189552 	0
1.02861226309 	0.0127936642061 	0
1.03038154132 	0.0218033956973 	0
1.03200241271 	0.0366507966712 	0
1.03161405364 	0.0597673855224 	0
1.03103220588 	0.0925464725679 	0
1.02988836597 	0.136960184971 	0
1.00553047146 	0.191604237955 	0
0.952309102187 	0.239373343643 	0
0.8939616863 	0.266973954097 	0
0.857580591197 	0.269493383479 	0
0.85320224016 	0.255243593558 	0
0.86999434044 	0.231356709955 	0
0.912327677541 	0.197478001375 	0
0.977298125378 	0.157133815954 	0