1.01404326881 	-0.00823010305035 	-2.042696099e-21
1.01508919952 	-0.0128214781188 	-1.54902878638e-21
1.01628477977 	-0.0179055297546 	5.63993281917e-22
1.0175825778 	-0.0238668160497 	-3.26454763293e-25
1.01862456784 	-0.0307482670304 	-6.24509542118e-22
1.01890211416 	-0.0388899119888 	-3.04827002747e-22
1.01736764295 	-0.0479693850261 	-3.44601106886e-22
1.0121468992 	-0.0566387118544 	-1.67836932806e-21
1.00175380758 	-0.0666996432549 	2.35146366819e-20
0.982075469297 	-0.070626133655 	1.71135239613e-21
0.954657010496 	-0.0629854888631 	4.24032316611e-23
0.927232060713 	-0.0358905109557 	2.05983930785e-21
0.916417416513 	0.00868180713388 	-3.84373706795e-24
0.932748614435 	0.0516159060947 	2.39642118945e-22
0.963651772776 	0.074690065091 	-1.47533794298e-21
0.991965745563 	0.077949153604 	1.70195153135e-21
1.01071900187 	0.0703254813764 	1.62905874688e-20
1.01944239702 	0.0576939947233 	-1.24891784521e-21
1.02279293686 	0.047599241666 	-1.19236927965e-21
1.02272154035 	0.0377929371747 	2.46076755717e-22
1.02116482462 	0.0294629443315 	5.09697686178e-22
1.0191205441 	0.0225940518971 	6.14139063396e-24
1.01708397958 	0.0168419885576 	-2.7576967303e-22
1.01540525651 	0.011973977111 	5.91108630193e-22
1.0140447458 	0.00761816138848 	5.9357949715e-22
1.0186430369 	-0.008880116298 	7.24624699957e-22
1.02020658148 	-0.0138436902548 	1.44013862117e-21
1.02221519162 	-0.0196659658486 	9.33633443265e-22
1.02453507449 	-0.0265205490121 	-1.8598399355e-22
1.02690293893 	-0.0347704805723 	9.21267546826e-22
1.02863349892 	-0.0449485858813 	-4.0173125159e-22
1.02865567518 	-0.0573356310237 	7.17075453564e-22
1.02508177126 	-0.0726328297689 	2.2763545371e-22
1.01352563802 	-0.0903794322666 	-7.06685023086e-22
0.988385054136 	-0.106694765639 	-2.99252954532e-21
0.941276317683 	-0.111659477928 	-4.11421521227e-21
0.877002215836 	-0.0774792186103 	1.03826050685e-20
0.844863440418 	0.0115826536111 	1.68152470575e-22
0.887420844347 	0.0966425210585 	9.46452194975e-21
0.956337263189 	0.122895888406 	-7.75437336903e-21
1.00331909338 	0.110950349089 	-1.81368793999e-21
1.02604496925 	0.0900672975707 	-3.93359470255e-22
1.03405368948 	0.0697505068226 	-2.27472353277e-22
1.0349053396 	0.0536499586595 	-4.01498310201e-22
1.03262937341 	0.0412875617371 	2.13486528576e-22
1.02919607012 	0.0315712760953 	-5.26445266056e-22
1.02568442338 	0.0239391446142 	8.72775435986e-23
1.02261103925 	0.0177365020491 	-2.41707995164e-22
1.02012521958 	0.0124813154194 	-4.79780916243e-22
1.01828496211 	0.00797535556834 	-1.03846350363e-22
1.02345925948 	-0.00911982147168 	1.46156006411e-23
1.02573828307 	-0.0141603147068 	6.84278266186e-22
1.02874213197 	-0.0203964614364 	-6.42144486445e-22
1.03242047167 	-0.0278031374605 	-3.58422919478e-24
1.03670290507 	-0.0370079242053 	2.83028462691e-22
1.04103291322 	-0.0488641239814 	2.74428737e-22
1.04442565481 	-0.0643050411266 	-5.79597358305e-22
1.04494509122 	-0.0849543889251 	-1.44248638806e-21
1.03871142062 	-0.112888994815 	-1.40094289285e-22
1.01640178907 	-0.151527038573 	1.13987200603e-21
0.952307930491 	-0.195990302312 	1.61165974789e-20
0.798931956323 	-0.194205931139 	-2.08986074726e-21
0.667649482258 	0.0195909047846 	-2.66223117272e-21
0.821707458941 	0.220609686097 	-3.61760049459e-21
0.978080606429 	0.205158673382 	9.77386156859e-21
1.03776182514 	0.149864077592 	-4.69665656975e-22
1.05434238726 	0.106090526057 	4.75215220315e-24
1.05516677367 	0.076508990975 	1.56922108766e-22
1.05040970482 	0.0561912345287 	-4.01580535021e-23
1.04414489632 	0.0420743213478 	3.86466505649e-23
1.03797613932 	0.0317419214004 	-6.90607013755e-23
1.0326337714 	0.0239108282004 	-8.31571095267e-25
1.02833784387 	0.0176450391713 	6.98796149451e-23
1.02498889305 	0.0123434802062 	-1.25629779246e-22
1.0225685063 	0.00796770355877 	-1.58231074807e-22
1.02834594785 	-0.00879296201334 	6.46866760988e-23
1.03136766826 	-0.0137524627597 	-2.56862971918e-23
1.03547020051 	-0.0198380931769 	1.09733125139e-22
1.04081316457 	-0.0272700065019 	-9.54924958589e-23
1.04738564962 	-0.0366534909943 	-1.31677071257e-22
1.05505281886 	-0.0492209810979 	-9.69934559996e-23
1.06336476338 	-0.0662381030427 	1.05039697434e-22
1.07147522778 	-0.0900457523322 	-2.45238698374e-22
1.07771926428 	-0.125158617822 	5.19538271588e-23
1.07757181477 	-0.182773017133 	-4.62445310429e-22
1.0537169139 	-0.296324009115 	1.28491464734e-22
0.838518830586 	-0.568499542074 	-2.33676042699e-21
0.897054455751 	0.598223795655 	3.30256977117e-22
1.09633156433 	0.29613178966 	-1.76625405253e-21
1.10702685653 	0.170346179993 	-1.93678448205e-21
1.09564442616 	0.108543847168 	-5.96884001671e-22
1.08098572825 	0.0742322190625 	8.63804716107e-22
1.06739860111 	0.0531411124855 	4.28560451455e-22
1.05594289144 	0.0393322115068 	-6.70590064663e-23
1.04668810981 	0.0295728945907 	-1.1979323523e-22
1.03943008057 	0.0223591741558 	-8.51780382954e-23
1.03386241433 	0.0165519630435 	-1.94319538566e-23
1.02971569016 	0.0116558892676 	-3.31899767776e-23
1.02675794189 	0.00753626366696 	4.59042724959e-24
1.03298319185 	-0.00778387058073 	-3.96051706536e-23
1.03670113925 	-0.0124638667511 	4.29482735959e-23
1.04189662521 	-0.0178653452905 	3.39822322351e-23
1.04895803598 	-0.024659082014 	-1.0377538616e-25
1.05795305844 	-0.0333705949546 	-1.56233096795e-23
1.06929883036 	-0.0451741887745 	-1.89458442857e-24
1.08315112984 	-0.0614240522399 	-4.06543583811e-24
1.0998379463 	-0.0842637765044 	2.02644544148e-23
1.12094989625 	-0.117487112079 	-3.84059132438e-22
1.15276731428 	-0.16865708312 	-1.90376545579e-22
1.225791642 	-0.257323142528 	1.94367372149e-22
0.0427937587996 	0.00151812177386 	-2.0510582056e-21
1.28521805448 	0.237204520668 	-2.60549803379e-22
1.18860210746 	0.13828794304 	3.70407311101e-22
1.13792473508 	0.0873208266085 	1.06656317605e-21
1.10524375198 	0.0598246544902 	-3.24570166143e-22
1.08260187224 	0.0435315654627 	-3.93747052846e-24
1.06630475082 	0.0329317947067 	8.49499438421e-24
1.0542912399 	0.0253087469093 	1.01874847122e-22
1.04543843688 	0.019434830851 	-3.19970029628e-25
1.03880040873 	0.0145943514953 	6.50979495752e-23
1.03402708041 	0.0104689793057 	6.21118051569e-23
1.03065979666 	0.0066483624323 	-2.55195743159e-23
1.03681982655 	-0.00655775224868 	1.81053247406e-24
1.04119593645 	-0.0101016215005 	-3.25076693911e-23
1.04744116208 	-0.014543183951 	-3.32221911967e-23
1.05598768485 	-0.0199603997957 	7.22535302169e-24
1.06716832295 	-0.0269730769749 	7.38664351607e-23
1.08190293221 	-0.0365691041308 	1.56061401736e-22
1.10061118862 	-0.0498205577467 	-9.26064799421e-22
1.12442005058 	-0.0682264169361 	3.83894902767e-22
1.15500923929 	-0.0928475683834 	1.33722571465e-21
1.19807995676 	-0.12131226254 	-8.38119336645e-21
1.25620332831 	-0.131871409329 	2.40926033097e-20
0.103840868163 	0.00567924097897 	1.45788488591e-21
-0.000543099115847 	0.0171697254038 	-4.47160750816e-22
0.160212870455 	0.0461755892363 	1.33002341462e-23
1.34448298526 	0.086775927882 	-3.69636937914e-20
1.23475246363 	0.0621048088805 	1.17792322375e-20
1.16310680638 	0.0451718088569 	1.11922349922e-21
1.11995030669 	0.0354617989133 	3.60789457521e-22
1.09204130856 	0.0289557678424 	1.60861026863e-21
1.07321776951 	0.0239024941717 	-2.75488455678e-22
1.05972899781 	0.0195459030994 	-2.43051048228e-22
1.05005227631 	0.0155933777307 	-1.09758203512e-23
1.04281390665 	0.0120707010693 	-4.36507591579e-23
1.03756503668 	0.00875187792672 	-8.89456549264e-23
1.03391107819 	0.00580823500776 	-1.72262970354e-22
1.03988133217 	-0.00470681447322 	-1.4889449158e-23
1.04457520406 	-0.00704456265645 	-1.21508538096e-22
1.05156826207 	-0.0101362572234 	1.85490067187e-22
1.06116886686 	-0.0136093566638 	-1.79178603644e-24
1.07402158922 	-0.0181434657078 	-2.71770783071e-22
1.09117772763 	-0.0242705179115 	-2.92024651981e-22
1.11364747685 	-0.0328612956153 	8.78280562954e-22
1.142246778 	-0.0451510945972 	3.19550062052e-21
1.17722494857 	-0.0617966749386 	7.58515264112e-22
1.21586604663 	-0.0806010309516 	2.77602741449e-21
1.18483972571 	-0.062164862949 	2.17552934612e-21
0.0850830453168 	0.0657455819415 	-3.34503928516e-21
-0.160031839936 	0.151756307576 	-3.56418833955e-21
0.484102887441 	0.0460220749346 	-8.47810373688e-21
1.33112559876 	-0.0604017462299 	-3.10848141782e-21
1.23356973542 	-0.0249237138428 	-3.8466639473e-21
1.16125691243 	-0.0031578456563 	-1.35309176028e-22
1.12000583364 	0.00857292529878 	-4.80320721288e-21
1.09358504426 	0.0135921021243 	-1.43968562358e-21
1.07565077781 	0.0145343528007 	3.71038466198e-22
1.0626930739 	0.01351464972 	4.48465452846e-22
1.05307787928 	0.0115624725316 	5.24329632104e-24
1.04575045703 	0.0093559108572 	-5.96977851099e-22
1.04031571536 	0.00691551047269 	5.25839501891e-22
1.03663989748 	0.00467957691432 	4.64626015964e-22
1.04188412173 	-0.00267668313153 	-1.2220781905e-22
1.04667534443 	-0.00371308029976 	-4.08324162492e-22
1.0538739421 	-0.0050939918781 	-2.70905205701e-22
1.06389148247 	-0.00628018306439 	6.11154941508e-23
1.07742940283 	-0.00768455224626 	-6.33100549697e-22
1.09615476327 	-0.00932078326821 	4.47973461449e-22
1.1205985262 	-0.0120500168314 	-1.11653548554e-21
1.15232767349 	-0.0165090410324 	-8.60571578091e-23
1.19444305983 	-0.027065380448 	-2.33373425816e-21
1.23935362951 	-0.0475493933137 	-2.67890119558e-21
1.11865453252 	-0.0571143239406 	3.64818771944e-21
0.109869539977 	-0.122191556852 	5.92814791441e-21
-0.149630380273 	-0.225799408569 	5.79039296137e-22
0.676263387373 	-0.288259806581 	1.46875862725e-20
1.23748333072 	-0.213416187743 	-2.53829349159e-21
1.17244888621 	-0.0987330097303 	-2.62728059489e-21
1.13552308659 	-0.0418937781372 	-1.97661114615e-21
1.10612460748 	-0.0112611556643 	3.03015084083e-22
1.08809895395 	0.00201942573215 	1.84261764211e-21
1.07443992345 	0.00721527149198 	-6.63306663292e-22
1.06330793676 	0.00848504516193 	9.68723262973e-22
1.05467121638 	0.00797555134878 	-1.11714091381e-22
1.0476733965 	0.00677393085649 	7.14545543503e-22
1.04239990868 	0.00512323500115 	8.88980047113e-22
1.03877907675 	0.00346720715876 	-2.66898234013e-23
1.04258954412 	-0.000670739064258 	3.9898787332e-22
1.04733577068 	-0.000503256439693 	4.10320393773e-22
1.05415204363 	-2.5401056232e-06 	-2.31902509453e-22
1.06385462056 	0.00120926903608 	-8.03541788946e-23
1.07702745979 	0.00320918070096 	2.95223550682e-22
1.09518921014 	0.00636341246375 	1.62854881839e-22
1.12081134752 	0.0120524024353 	-2.26902114621e-22
1.15334754086 	0.0146030904068 	7.17401151054e-22
1.20086172553 	0.0185296325308 	2.66108503305e-20
1.27206331136 	0.00664732833513 	2.05239562196e-21
1.15954831748 	-0.0273365307214 	7.05226809385e-22
0.341182885808 	-0.282925553067 	3.34292519562e-21
-0.0369448613477 	-0.513695122228 	-2.69899744234e-22
0.602477034272 	-0.433661314107 	1.63039457723e-21
1.05877209017 	-0.258359023542 	-1.36555306823e-21
1.07884308463 	-0.113871332684 	2.07861121478e-21
1.08809994905 	-0.0468140679544 	2.10207246228e-20
1.0839794143 	-0.0158412214383 	4.74599430971e-22
1.07943925926 	-0.00243279411822 	2.52767167935e-21
1.07125697384 	0.00322279103213 	-2.84202943237e-22
1.06274309918 	0.00507826296486 	-7.93357790488e-22
1.05535063173 	0.00513810963042 	1.65990604939e-22
1.04880994933 	0.00449686169613 	3.46858319328e-22
1.0438709015 	0.00342129717337 	-7.82142043613e-22
1.04023367321 	0.00230579531768 	-6.75675374786e-22
1.04226940953 	0.00114661496123 	-6.06671486978e-22
1.04652183704 	0.00236757905461 	-2.4976846543e-22
1.05246106148 	0.00444014998172 	-5.8736799916e-23
1.06111283586 	0.00780320179067 	-2.43784149667e-22
1.07315576216 	0.0132093029016 	2.31347166049e-22
1.08846685686 	0.0221888244821 	-8.50511452734e-22
1.10942076347 	0.031716606249 	-8.71352004991e-22
1.14250392298 	0.0501951582982 	-1.27563983563e-21
1.18650492522 	0.0753830905875 	4.06811236279e-21
1.28010180606 	0.105151469029 	7.15523354722e-22
1.2348897882 	0.122144985585 	-7.72650298897e-21
0.690893087979 	-0.055971557523 	-6.09664753514e-21
0.125233064891 	-0.364897958925 	-1.01019751805e-21
0.361073215456 	-0.377006329469 	2.6533432206e-22
0.88579267547 	-0.156109185523 	-4.95651292766e-22
1.00071389404 	-0.055375333058 	2.85903817382e-22
1.05049216213 	-0.0213262009775 	1.45804668852e-21
1.06919712581 	-0.0054793464158 	-5.5647356558e-22
1.07177691889 	0.000899220031324 	9.2041090541e-22
1.06925906284 	0.00201123874916 	9.91983374859e-22
1.06250975952 	0.00317521880363 	-1.44479141418e-21
1.05571834752 	0.00294184994266 	3.17012414029e-22
1.04948136949 	0.00245348820874 	9.31786016952e-23
1.04478885675 	0.00176139110106 	8.42263175857e-22
1.04119399587 	0.00117673209301 	3.83418627507e-22
1.040989633 	0.00241871769479 	7.33687084467e-22
1.04450537795 	0.00455616302287 	-1.66130487794e-21
1.04927604573 	0.00747001469568 	1.05489741689e-21
1.0559562779 	0.0126758783227 	5.67718589478e-24
1.06466940823 	0.0196738339763 	1.95774158876e-21
1.07573864418 	0.0301662323719 	-4.78703097434e-22
1.0911914134 	0.0484978445073 	-1.96533108743e-21
1.11435301343 	0.0771728727004 	1.08879078537e-22
1.14217340616 	0.120434148079 	1.50467105427e-21
1.20675836547 	0.195953703031 	1.50964645183e-21
1.20969919624 	0.297346917838 	-1.02338419884e-20
0.901619040428 	0.310614220455 	1.53963047651e-22
0.390568331559 	0.103173563428 	-4.63665544823e-22
0.292942396918 	-0.0904638929202 	5.76978817764e-23
0.750118484376 	-0.0163132867337 	3.38574996181e-21
0.980422990549 	0.0424623502183 	-3.16755401021e-22
1.04563572278 	0.0235309975122 	7.59703930048e-23
1.06969739681 	0.0135802372853 	7.12977569317e-23
1.07353456052 	0.00648115680539 	-1.26039881045e-21
1.06926683696 	0.00376228363036 	-5.95753395089e-22
1.062699481 	0.00182524212592 	1.56390589314e-21
1.05595733724 	0.000181838139231 	-1.49527228762e-24
1.04989495142 	0.000417815556716 	-1.81215063948e-21
1.04522226733 	2.72748778799e-05 	3.10815529536e-21
1.04147880378 	0.000112010776014 	-1.05093771793e-22
1.03914435426 	0.00315192352466 	-5.69370516687e-22
1.04184902824 	0.0059531100217 	6.58023569431e-24
1.04508561115 	0.00888930734153 	2.02997442075e-21
1.04924406207 	0.0137338031654 	-1.1253341124e-21
1.05427542601 	0.0217273911448 	1.81900987295e-21
1.0607980741 	0.0344315391277 	-2.10888089527e-21
1.06684800237 	0.054863917041 	2.41625125077e-22
1.07459890522 	0.0869693691658 	-1.58389174947e-23
1.07918216125 	0.138815116581 	2.1673888955e-21
1.09369882469 	0.223708592206 	-2.73189893575e-21
1.0863090441 	0.356653780587 	3.42053894929e-21
0.906212098411 	0.451821158465 	2.90962001003e-21
0.565995353325 	0.412078526093 	-2.84765232347e-22
0.431775922251 	0.290935890169 	6.30558333059e-23
0.677289973923 	0.186275969251 	-6.52712951092e-22
1.01130114407 	0.1339619132 	1.04775509638e-21
1.08729692188 	0.0656055061757 	-7.22930753017e-22
1.08857544066 	0.0257969625392 	1.04407097481e-24
1.08290665164 	0.0106687896793 	2.64064816991e-22
1.07365482116 	0.00227448709786 	-2.00781789644e-21
1.0643568022 	-0.000274522517324 	1.84002477988e-21
1.05606557264 	-0.00152414868364 	-2.75089511425e-22
1.0493478211 	-0.00274868006691 	-3.44930184861e-21
1.04520501046 	-0.00195543785061 	-7.17653573066e-23
1.04128268065 	-0.00109884497352 	7.19022691911e-22
1.03720644726 	0.00316619795518 	4.07217464533e-22
1.03918041343 	0.00564666929808 	-2.6000070182e-22
1.04083222191 	0.00822161733088 	-2.14715576018e-22
1.04304914626 	0.0126345026653 	1.02833628428e-22
1.04540702616 	0.0198422134348 	8.95976769724e-23
1.04569480634 	0.0310281346918 	6.1202570362e-22
1.04227669003 	0.047887361344 	1.13607039457e-22
1.03624065179 	0.0773607568575 	1.67206906167e-23
1.01563145311 	0.122721729703 	-1.07950652226e-22
0.989508633454 	0.192692264867 	-5.99380010152e-24
0.945598972465 	0.323800946657 	-7.17152546992e-22
0.83671516367 	0.440252613777 	-6.73519281557e-22
0.597467250179 	0.503141999266 	-3.82397045161e-22
0.535162908607 	0.474019983556 	5.19231548813e-22
0.791851787202 	0.30383240533 	6.27413283116e-22
1.117729722 	0.124276637113 	1.33835118516e-22
1.15640581791 	0.0607152644209 	6.23132448169e-23
1.11991351247 	0.015638607217 	-2.69755330458e-23
1.09496642379 	0.00327266408548 	1.0113161327e-22
1.07945846846 	-0.00495358842017 	6.17919911191e-22
1.06540270431 	-0.00516579741006 	3.75955969882e-22
1.05627262025 	-0.00545640572311 	2.93070282428e-22
1.04870715072 	-0.00398674316954 	-3.76162603154e-22
1.04436798653 	-0.00339976304331 	-1.12493509614e-21
1.04014880007 	-0.00251596190732 	-7.81726996585e-22
1.03518783699 	0.00319470906703 	-8.96383764265e-22
1.03647977919 	0.00446786521406 	2.95163197323e-22
1.03814503688 	0.00663252977179 	3.2669632416e-23
1.03915877898 	0.00962777038583 	2.63469851444e-23
1.03890011337 	0.0140584650035 	-8.35058758234e-23
1.03443161915 	0.0200076293743 	4.582597126e-23
1.02538163976 	0.0290251999696 	2.85931229624e-23
1.00551644537 	0.0462988950879 	8.30583312589e-24
0.956929857307 	0.0717678028599 	-4.33599110726e-24
0.898224426202 	0.125524371414 	-5.51363911758e-24
0.827108239826 	0.213340216448 	2.93048623609e-22
0.693360140833 	0.356611582905 	1.98462999109e-24
0.586482805707 	0.412454930216 	-2.80596080709e-22
0.687995454354 	0.327477289559 	1.62431411705e-21
1.00942536415 	0.116331094312 	3.61370361586e-22
1.21592254987 	0.0171735535743 	3.13142592815e-23
1.2198052435 	-0.00692951720769 	9.6492849719e-24
1.13723832007 	-0.0242810738516 	5.14787465033e-23
1.10042590789 	-0.0148776156491 	9.84807348491e-22
1.08070525473 	-0.0164197041954 	-2.33781401043e-22
1.06437118759 	-0.0125764741048 	-4.33740507537e-22
1.05475660821 	-0.00929804686838 	6.17633723583e-23
1.04712954795 	-0.00726564963465 	-1.44185781544e-23
1.04181241389 	-0.00505794525433 	9.81934355009e-22
1.03866185561 	-0.00363609799447 	1.89645326759e-22
1.03402113933 	0.00186532785199 	-1.20357882757e-22
1.03527574907 	0.00292685133598 	-1.23123647809e-22
1.0364402662 	0.0038081407355 	5.87873798079e-23
1.03656210409 	0.00466387794393 	4.91178930101e-23
1.03470560448 	0.00542986633701 	2.13820583684e-23
1.02924692813 	0.00539718737321 	-1.97580050661e-22
1.01641152516 	0.00555317726799 	-2.77829070121e-23
0.987688733993 	0.00823485000374 	4.65973601382e-22
0.934047826923 	0.00987829280107 	-3.14095912137e-22
0.839693738497 	0.0264404970643 	-3.12877527322e-22
0.721909539545 	0.0847654110268 	3.673007661e-22
0.641069836952 	0.117603682231 	0
0.677533508568 	0.064581481986 	-2.73390777149e-35
0.871527715908 	-0.0524703670701 	-4.33415318545e-24
1.10021702573 	-0.140448724698 	-1.10054839215e-21
1.2107049782 	-0.135128739937 	6.16478743646e-22
1.1911096666 	-0.0887828273564 	9.66761498644e-22
1.12877923574 	-0.05619516351 	-8.07703714471e-22
1.09161181331 	-0.0382839114374 	4.31916403746e-23
1.07358626182 	-0.0265314044337 	5.04693684065e-22
1.05955255714 	-0.0197143433284 	1.81993998593e-22
1.05029697081 	-0.0134736690856 	-1.83743602022e-23
1.0444313545 	-0.00963381642201 	1.77849284724e-22
1.0395590438 	-0.00639749199237 	-6.32382676398e-22
1.03651939404 	-0.00366236914003 	-5.8710894581e-22
1.03352717573 	0.00137370682661 	0
1.03519496263 	0.00186795086058 	0
1.03693384806 	0.00167595485547 	0
1.03803679179 	0.000476521513315 	0
1.0377579035 	-0.00274093483929 	0
1.03489606355 	-0.0094169189173 	0
1.0247094731 	-0.0208659620878 	0
0.9999754286 	-0.0437918144501 	0
0.943579556087 	-0.0791695048651 	0
0.829034312285 	-0.109873137948 	0
0.717501844565 	-0.120781753462 	0
0.68137308135 	-0.151420398132 	0
0.75509799457 	-0.209969731698 	0
0.928272768549 	-0.260975380979 	0
1.08765468071 	-0.26416777785 	0
1.1509524205 	-0.202557618878 	0
1.13280222276 	-0.126798020108 	0
1.09460927448 	-0.0781702388879 	0
1.07299222918 	-0.0521118609735 	0
1.06141338158 	-0.0349084680417 	0
1.05167449469 	-0.0239033738983 	0
1.0448990847 	-0.0164374413935 	0
1.04045816149 	-0.0112637042544 	0
1.03671494247 	-0.00742717894714 	0
1.03429239425 	-0.00450122119769 	0
1.03304154335 	0.00108436396263 	0
1.03526471812 	0.0012152665331 	0
1.03806222391 	0.000424994413512 	0
1.04146172112 	-0.0019844864787 	0
1.04495615009 	-0.00744841503623 	0
1.04892309735 	-0.0190128294655 	0
1.05266176597 	-0.0385505423331 	0
1.04705465475 	-0.0804723948823 	0
1.00131777669 	-0.146446507101 	0
0.879950605921 	-0.219137960193 	0
0.762517611226 	-0.275746972282 	0
0.727209107401 	-0.319366607795 	0
0.782979092544 	-0.35262130818 	0
0.918240669781 	-0.352347736573 	0
1.0286440629 	-0.300154474654 	0
1.06474888711 	-0.213069300531 	0
1.06485753954 	-0.134398570553 	0
1.05690027564 	-0.0846726014686 	0
1.05106430618 	-0.0567193505641 	0
1.04634985962 	-0.0374555769174 	0
1.0420176538 	-0.0248680865013 	0
1.03847100269 	-0.0170097926589 	0
1.03571582294 	-0.011371679067 	0
1.03335785128 	-0.00744653478991 	0
1.03176724452 	-0.00459664096967 	0
1.03276208645 	0.00112884595462 	0
1.03555408 	0.00121745157697 	0
1.03963434845 	0.000586074034114 	0
1.0454014733 	-0.00159959878542 	0
1.0535585247 	-0.00572995317876 	0
1.06532468754 	-0.0158095537711 	0
1.08557364037 	-0.0320923955024 	0
1.1077719422 	-0.0654333944431 	0
1.08474012651 	-0.131419290203 	0
0.958218281688 	-0.226291651886 	0
0.815444006603 	-0.311485209481 	0
0.759360642248 	-0.362157572488 	0
0.78462540438 	-0.384804682874 	0
0.870546363604 	-0.364000286674 	0
0.942789755688 	-0.286642884207 	0
0.97729577867 	-0.195219642318 	0
1.00242810071 	-0.126812709255 	0
1.01858714266 	-0.0804165478012 	0
1.02748742033 	-0.0519560516503 	0
1.03082750058 	-0.0334115556913 	0
1.0321636526 	-0.0218334547728 	0
1.03211204144 	-0.0146371647523 	0
1.03122526205 	-0.00974891378828 	0
1.03019852249 	-0.00645932628462 	0
1.02932270826 	-0.004025793769 	0
1.03252012297 	0.00156372519149 	0
1.03574191818 	0.00204305889911 	0
1.04081082007 	0.00247653893379 	0
1.0478257289 	0.00201317610317 	0
1.05912997665 	0.00169893197143 	0
1.07560085295 	-0.00152186381719 	0
1.10340675112 	-0.00575371778586 	0
1.14630124107 	-0.0125698536192 	0
1.16126008422 	-0.0395177932479 	0
1.06243582812 	-0.111397257016 	0
0.899194744224 	-0.214895536843 	0
0.798733359785 	-0.292481055263 	0
0.78004584838 	-0.3202872542 	0
0.811304840198 	-0.290224720722 	0
0.853463911576 	-0.215067618165 	0
0.900642148987 	-0.14247707482 	0
0.948642497248 	-0.0915439624723 	0
0.981701191244 	-0.0567380267993 	0
1.00341945041 	-0.0345510436841 	0
1.01605213936 	-0.0213864728817 	0
1.02306751844 	-0.0139977379257 	0
1.02645814945 	-0.00937592652303 	0
1.02749811755 	-0.00647157908396 	0
1.02758006229 	-0.00445379117331 	0
1.02722526796 	-0.00283576110012 	0
1.03170340404 	0.00238931781378 	0
1.03493285609 	0.00366421180254 	0
1.040131226 	0.00559983697617 	0
1.04690425681 	0.00756645997402 	0
1.05831572475 	0.0111806641047 	0
1.07453452501 	0.0154515314826 	0
1.09931363073 	0.0233404201238 	0
1.14313629304 	0.0391304188162 	0
1.18399717433 	0.0594096152999 	0
1.1399153389 	0.0542295655351 	0
1.00394838644 	-0.0074325916258 	0
0.86920711378 	-0.0825722345192 	0
0.789516915112 	-0.116736594699 	0
0.771121298849 	-0.106291276411 	0
0.795482532159 	-0.0706805674638 	0
0.851483185387 	-0.036574182394 	0
0.915744529695 	-0.0143799166036 	0
0.960732613593 	-0.00436106444994 	0
0.990392625244 	-0.00165092277486 	0
1.0088888926 	-0.00133555425746 	0
1.01892700443 	-0.00193751279389 	0
1.02385677908 	-0.00208465657444 	0
1.02572729397 	-0.00205039638916 	0
1.02620446755 	-0.00174987884625 	0
1.02602372585 	-0.00124586649059 	0
1.02999111502 	0.00324892477453 	0
1.03266133478 	0.00528354961235 	0
1.03702849953 	0.0083676785613 	0
1.04251134286 	0.0123119813248 	0
1.0516804253 	0.0186203117981 	0
1.06419462825 	0.0280841618321 	0
1.08120618052 	0.0431815143468 	0
1.11151992417 	0.0693642515254 	0
1.14707315016 	0.1130966403 	0
1.13245999113 	0.159402606589 	0
1.04480875974 	0.17170117041 	0
0.920280026267 	0.149891532872 	0
0.813574095109 	0.127100321249 	0
0.771619661034 	0.108995163946 	0
0.785687016793 	0.0976605005375 	0
0.841533536943 	0.0928530520818 	0
0.915219742282 	0.0819628954729 	0
0.969133474421 	0.0607265495456 	0
1.00015271308 	0.0368283418756 	0
1.01627389046 	0.0204502095283 	0
1.02346891755 	0.0105446001843 	0
1.02632483318 	0.00504968463103 	0
1.0268656296 	0.00210862202496 	0
1.02656188423 	0.000682700310524 	0
1.0259522849 	0.000138662627606 	0
1.02775425689 	0.00359978640125 	0
1.02961936551 	0.00592469611204 	0
1.03264008692 	0.00944488718581 	0
1.03625355286 	0.0144456863093 	0
1.04197903357 	0.0223017778647 	0
1.04937567638 	0.0348490847971 	0
1.05775828949 	0.0541625690662 	0
1.07126950266 	0.0845126910524 	0
1.08828362623 	0.134474502032 	0
1.07491306157 	0.198475267373 	0
1.01431874188 	0.253108964705 	0
0.918842738671 	0.277368585237 	0
0.831315346076 	0.272155812936 	0
0.797475799071 	0.24846721087 	0
0.809590819168 	0.218721807124 	0
0.865948525669 	0.188907420003 	0
0.947169182105 	0.151462807636 	0
1.00669756441 	0.103401101061 	0
1.03181266407 	0.0600668203579 	0
1.03640198038 	0.0333203129885 	0
1.03506947116 	0.0179091225058 	0
1.03281701934 	0.00936297941026 	0
1.0303328647 	0.00455364253061 	0
1.02828476662 	0.00201655769027 	0
1.02669182295 	0.000877533909996 	0
1.02562498193 	0.00311562401825 	0
1.02671672046 	0.00521233856293 	0
1.02823814175 	0.00847393888619 	0
1.0295658468 	0.0134612830308 	0
1.03105267041 	0.0216050412653 	0
1.03219006987 	0.0350876897688 	0
1.03127064701 	0.0565615156616 	0
1.02978232276 	0.0881550230149 	0
1.0283118083 	0.136727601775 	0
1.00496078176 	0.201115599082 	0
0.958111779674 	0.268992306863 	0
0.896013421779 	0.313850406629 	0
0.841243769718 	0.318608895513 	0
0.825522736728 	0.29907773101 	0
0.844320618785 	0.266444361312 	0
0.908808415623 	0.221990520261 	0
1.00079364633 	0.163170362486 	0
1.06088826827 	0.0993593537238 	0
1.07138361492 	0.054976438046 	0
1.05929935213 	0.0310944805041 	0
1.04795546826 	0.0170125656114 	0
1.04002316687 	0.00933893557434 	0
1.0343826793 	0.00473547949033 	0
1.0304097739 	0.00220247625516 	0
1.02769574116 	0.000989548913123 	0
1.02403646951 	0.00196074874737 	0
1.02443905427 	0.00333738652349 	0
1.02453547946 	0.00557650127813 	0
1.02349955818 	0.0090698154735 	0
1.02060267221 	0.0151095543162 	0
1.01484894598 	0.0254954618828 	0
1.00470563654 	0.0435283860218 	0
0.991298981038 	0.0695555134415 	0
0.973901238961 	0.109317361289 	0
0.937223499159 	0.164627770647 	0
0.89606482339 	0.22693060463 	0
0.864606014765 	0.280409543258 	0
0.843142928717 	0.29745793823 	0
0.847902096592 	0.282885961893 	0
0.88514775611 	0.24401919273 	0
0.970658734111 	0.1788783713 	0
1.07058339244 	0.106090049092 	0
1.11361442667 	0.0518380887086 	0
1.10015802638 	0.0274385056089 	0
1.07475515293 	0.0163343537954 	0
1.05683870089 	0.00897167726615 	0
1.04502685526 	0.00520008895107 	0
1.03733156935 	0.00268131746306 	0
1.03199543613 	0.00134040434412 	0
1.02850439798 	0.000599081897663 	0
1.02322861139 	0.000536891184887 	0
1.02323283699 	0.000787880147343 	0
1.02253430785 	0.00120741354697 	0
1.02013416398 	0.00167663739034 	0
1.01453452415 	0.00271345058729 	0
1.00378314317 	0.00488316112159 	0
0.986850775534 	0.0109100233792 	0
0.964520576078 	0.0217486901848 	0
0.933202672872 	0.0437366266359 	0
0.88535526826 	0.0789899196843 	0
0.843498694132 	0.116761796107 	0
0.828798511323 	0.155167013543 	0
0.839635090996 	0.17501182241 	0
0.879217016012 	0.164556107647 	0
0.950054302515 	0.120241610364 	0
1.04775701444 	0.0540775860661 	0
1.12752793192 	0.00620439867148 	0
1.13892032239 	-0.00889577250149 	0
1.10723226507 	-0.0056071474545 	0
1.07852699412 	-0.00278831103087 	0
1.05940406693 	-0.00207759914773 	0
1.04649090774 	-0.00119719905101 	0
1.03825202845 	-0.000930046048414 	0
1.03244766136 	-0.000517933631072 	0
1.02877235449 	-0.000311774503023 	0
1.02340217872 	-0.000875307156637 	0
1.02365452735 	-0.00184812244946 	0
1.02339782839 	-0.00355305238358 	0
1.02176941171 	-0.006633008542 	0
1.01707594507 	-0.0117831434516 	0
1.00641186861 	-0.0202086384064 	0
0.987154072949 	-0.0316526085014 	0
0.958357624767 	-0.0420886504277 	0
0.916239941242 	-0.0432795929118 	0
0.862957056333 	-0.0355364852945 	0
0.822421115483 	-0.0304191674456 	0
0.812705842307 	-0.0277945212964 	0
0.840903323778 	-0.0267329452992 	0
0.909622435596 	-0.0331154919622 	0
1.00278830556 	-0.0559684033161 	0
1.0890661283 	-0.0815489528148 	0
1.13403585412 	-0.0788922247504 	0
1.12592265572 	-0.0545893652923 	0
1.09528852341 	-0.0321648991732 	0
1.07216177368 	-0.0195128774719 	0
1.0558918043 	-0.0122204403674 	0
1.04435045327 	-0.0074722021857 	0
1.03694625738 	-0.00471094236586 	0
1.0315721038 	-0.00274499594896 	0
1.02822192209 	-0.00156349094134 	0
1.02462955494 	-0.00197015233707 	0
1.0258489833 	-0.00383063823495 	0
1.02723442255 	-0.00707444691329 	0
1.02842987205 	-0.0126327135207 	0
1.0282918007 	-0.0220789828188 	0
1.02391812974 	-0.0380633116455 	0
1.00828121247 	-0.0639864577296 	0
0.975944756182 	-0.0947536222051 	0
0.926132280264 	-0.118267923896 	0
0.870302638951 	-0.134876060522 	0
0.833509642222 	-0.152997463843 	0
0.824359871803 	-0.172339909594 	0
0.848018376989 	-0.186713490404 	0
0.913845868495 	-0.188590121089 	0
1.00217499481 	-0.179619105261 	0
1.07334704907 	-0.16044852733 	0
1.10004452578 	-0.12432885817 	0
1.09048059558 	-0.0819042722912 	0
1.07252079522 	-0.0504887086028 	0
1.05880422194 	-0.0315824390837 	0
1.04753993762 	-0.0194921054965 	0
1.03912968759 	-0.0118886286017 	0
1.03362446109 	-0.00729399245336 	0
1.02945363447 	-0.00428406951015 	0
1.02682580373 	-0.00247382004603 	0
1.02646949167 	-0.00239282762812 	0
1.0289376311 	-0.00450110289065 	0
1.03240741553 	-0.00804808112762 	0
1.03716028191 	-0.0139839247556 	0
1.0431386783 	-0.0238484876544 	0
1.04894154565 	-0.0407954512805 	0
1.04400029166 	-0.0701963314159 	0
1.01279305672 	-0.113583221563 	0
0.956977686947 	-0.155539936631 	0
0.897354281502 	-0.188552071113 	0
0.85930683211 	-0.218296977268 	0
0.845924483652 	-0.241312858763 	0
0.855833333452 	-0.256564086901 	0
0.901027812737 	-0.25495621249 	0
0.970060520414 	-0.231597523948 	0
1.02930760133 	-0.189757823369 	0
1.0519060179 	-0.138487462039 	0
1.04901808908 	-0.0934149227808 	0
1.04465319367 	-0.05975850416 	0