1.01412041806 	-0.00819934272229 	-2.07352910017e-21
1.01527141021 	-0.0128212690399 	-1.57312515933e-21
1.0166103882 	-0.0179810387386 	5.73309165418e-22
1.01810272228 	-0.0240903233747 	8.01183583368e-26
1.01936945458 	-0.0312121443375 	-6.36111872042e-22
1.019885338 	-0.0397211304212 	-3.09835196946e-22
1.01860100469 	-0.0493264984559 	-3.52505608047e-22
1.01353871454 	-0.0585829265393 	-1.7140567336e-21
1.00322098858 	-0.0694222040358 	2.39852858345e-20
0.98339201591 	-0.0740502973139 	1.73369058683e-21
0.955663121889 	-0.0670067702176 	3.82818964922e-23
0.927783574391 	-0.040303541069 	2.06412569814e-21
0.916433818869 	0.00414412141273 	-3.15382460399e-24
0.932246658645 	0.0472262419467 	2.44134452477e-22
0.962696804504 	0.0706711964774 	-1.43817883535e-21
0.990692142952 	0.0745082718293 	1.64310192629e-21
1.00928108912 	0.0675752285522 	1.53105985904e-20
1.01807517692 	0.0557215536717 	-1.15707645078e-21
1.02155380794 	0.0462050892026 	-1.0765180642e-21
1.02172277599 	0.0369346256323 	2.20781231149e-22
1.02039784276 	0.0289789890775 	4.30796404193e-22
1.01857267401 	0.0223580621397 	1.25957899461e-23
1.01672731233 	0.0167592402992 	-2.36421482077e-22
1.01518987988 	0.0119697974039 	4.86569515502e-22
1.01393611138 	0.00764510782542 	4.87851925821e-22
1.01870741919 	-0.00875318943754 	7.35881086441e-22
1.0204085765 	-0.0136947865334 	1.46343472546e-21
1.022622506 	-0.0195288294244 	9.50375851039e-22
1.02521905373 	-0.0264764693722 	-1.89371232749e-22
1.02794787282 	-0.0349206144222 	9.39789765372e-22
1.03009256025 	-0.0454648601534 	-4.13067345976e-22
1.03051368766 	-0.0584032966476 	7.40900107687e-22
1.02726309929 	-0.0744911211565 	2.348691833e-22
1.01583236496 	-0.0931864274306 	-7.31656437083e-22
0.990490972179 	-0.11044907839 	-3.08327940387e-21
0.942863004965 	-0.116198138038 	-4.20359887962e-21
0.877857523808 	-0.0825058504613 	1.04276093342e-20
0.844857231595 	0.00639122377513 	1.6746320052e-22
0.886627278428 	0.0916142975203 	9.32902048043e-21
0.954822953759 	0.118343194293 	-7.4668468535e-21
1.00127220006 	0.107163304197 	-1.67090562269e-21
1.02378084246 	0.0872062943403 	-3.5426402266e-22
1.03188754767 	0.0678263189237 	-1.97537720772e-22
1.03304252897 	0.0525247413037 	-3.08171146023e-22
1.03114665203 	0.0407238852268 	1.70869798528e-22
1.02811774201 	0.0313833865473 	-4.42010959131e-22
1.02496540486 	0.0239566371032 	7.11802827629e-23
1.02216780181 	0.0178507293404 	-1.41527792689e-22
1.01988797318 	0.0126167766448 	-3.74348733118e-22
1.01818611746 	0.00808963038943 	-1.06901930845e-22
1.02344139785 	-0.00886910738806 	1.48444937789e-23
1.02588975612 	-0.0137793868064 	6.95686097237e-22
1.02914610196 	-0.0199302095781 	-6.53650743437e-22
1.03318058075 	-0.0273104427593 	-3.66891174029e-24
1.03795534819 	-0.0365692296879 	2.89920633961e-22
1.04290616035 	-0.0486711103922 	2.86359357889e-22
1.04698779293 	-0.0646420613807 	-6.08848308311e-22
1.04812402392 	-0.0861984606121 	-1.53646478694e-21
1.04217482055 	-0.115382385844 	-1.59524401392e-22
1.01959204111 	-0.155401927403 	1.20746090311e-21
0.954545167193 	-0.200802787994 	1.67675626597e-20
0.80016536797 	-0.19954642769 	-2.0970900041e-21
0.66765824969 	0.0139219760982 	-2.65552981352e-21
0.820539188889 	0.215253252995 	-3.56388765625e-21
0.975932659577 	0.200311129402 	8.97794751944e-21
1.03466639922 	0.145925379535 	-3.80957840343e-22
1.05093647591 	0.103503452924 	1.81390840894e-23
1.05200267338 	0.0751567319165 	-8.21861438985e-23
1.04782978942 	0.0557568502461 	-1.37464011161e-22
1.04223578981 	0.0421843088979 	7.8230441419e-23
1.03668009463 	0.0321143094083 	-4.16574061117e-23
1.03182886377 	0.0243530207412 	-1.43414825541e-24
1.02788831787 	0.0180683609274 	-6.9080275793e-24
1.02479843598 	0.0126888176553 	-5.02399533383e-23
1.02254416055 	0.00819996610104 	-8.5185967167e-23
1.02816449806 	-0.00838327798067 	6.56872070906e-23
1.03135400734 	-0.0131104228791 	-2.59445191378e-23
1.03572784378 	-0.0189707668364 	1.11807706506e-22
1.04148350291 	-0.026174628113 	-9.77305167376e-23
1.0486622998 	-0.0353724475801 	-1.35626806189e-22
1.05718927555 	-0.047926901928 	-1.01604207666e-22
1.06658505433 	-0.0652869792143 	1.25961163772e-22
1.07585470279 	-0.090035576279 	-2.43032084326e-22
1.08289394071 	-0.12689518854 	-1.33806839984e-23
1.08239098938 	-0.186816649893 	-2.80377266186e-22
1.05650866887 	-0.301885148885 	-1.0774265342e-22
0.839975899811 	-0.573240311044 	-2.60654431568e-21
0.895711913856 	0.593508905804 	1.7612360423e-22
1.09365738481 	0.290558321125 	-2.06857941531e-21
1.10236192685 	0.166212198556 	-2.27189824808e-21
1.09055554969 	0.106647363575 	-6.78628803776e-22
1.07661633774 	0.0740706444905 	9.23490708827e-22
1.0641358944 	0.0539528267233 	4.95680034395e-22
1.05374487252 	0.0405184373038 	-8.64884987226e-23
1.04534703797 	0.0307746744273 	-1.51638566043e-22
1.03870038446 	0.0233937936612 	-1.06148348056e-22
1.03354793725 	0.0173760358083 	-7.64589417363e-24
1.02967426377 	0.0122566419396 	-4.09372708083e-23
1.02688922475 	0.00791814714978 	7.40656195085e-24
1.03254511695 	-0.00724597979689 	-4.02295946711e-23
1.03639472243 	-0.0115901304595 	4.341800239e-23
1.04181855895 	-0.016590301811 	3.42812840674e-23
1.04928064509 	-0.0228958495955 	-9.9584424965e-26
1.05892697021 	-0.0310726269513 	-1.61401448992e-23
1.07134044288 	-0.0424069778053 	-1.93651271405e-24
1.08679430854 	-0.0585060531849 	-3.98790461629e-24
1.10559915147 	-0.082039470198 	2.01401583511e-23
1.12884424903 	-0.117591323171 	-3.73481310434e-22
1.16112997283 	-0.1732904212 	-1.77439253754e-22
1.22959583624 	-0.266874361916 	1.80204028749e-22
0.0447601633801 	0.00146634419004 	-2.15537907801e-21
1.28161502229 	0.227876287295 	-2.76824733246e-22
1.18058240724 	0.13352677551 	3.92779160799e-22
1.13015676348 	0.0869279107051 	1.11811627412e-21
1.09945336571 	0.0617912764862 	-3.39648629979e-22
1.07886312375 	0.0462792609423 	-4.11781347856e-24
1.06415713201 	0.0355972368598 	9.1893797855e-24
1.05322402716 	0.0275390603105 	1.10179269578e-22
1.04504048285 	0.0211540412042 	-3.52352585815e-25
1.03881288305 	0.0158460287988 	7.72141195545e-23
1.0342695116 	0.0113261667043 	7.51234989497e-23
1.03103455915 	0.00716984441059 	-3.46141502063e-23
1.03604574987 	-0.00595397968021 	1.97330115644e-24
1.04045690899 	-0.00907177170069 	-3.27658331866e-23
1.04681411398 	-0.0129411869758 	-3.35503299196e-23
1.05562235342 	-0.0175945454129 	7.55823561137e-24
1.06734448254 	-0.0236328182304 	7.72054314713e-23
1.08319428583 	-0.0320527016078 	1.63870080657e-22
1.10397341749 	-0.0441789590608 	-9.66084213735e-22
1.13121221909 	-0.062202800811 	4.17959113052e-22
1.16682257745 	-0.0888514520813 	1.35312404689e-21
1.21491871672 	-0.125115705545 	-8.39985301865e-21
1.26855271137 	-0.151669142233 	2.290617618e-20
0.078769455632 	-0.0077344272182 	1.24705967005e-21
-0.000673133330807 	0.015048214276 	-4.44459445447e-22
0.189836478751 	0.0378906685894 	-4.45795391168e-23
1.33329017942 	0.0679305947441 	-3.8817743778e-20
1.21872368829 	0.0578352129549 	1.19521493813e-20
1.15139350343 	0.0485748515539 	1.10900335431e-21
1.11297212535 	0.0411183213583 	3.968908334e-22
1.08848326219 	0.0344462186892 	1.62839070744e-21
1.07176014971 	0.0283674349946 	-2.81366225947e-22
1.05943366483 	0.0228628870425 	-2.55386307088e-22
1.0503241315 	0.0179399342857 	-1.14786793472e-23
1.04336686448 	0.0136649630101 	-5.27286657837e-23
1.03824077385 	0.00977490267355 	-1.04117013503e-22
1.03462623201 	0.00641498748807 	-1.98209133176e-22
1.03872036953 	-0.00410848646829 	-1.49884306597e-23
1.04329595583 	-0.00600109583417 	-1.2406068318e-22
1.05020521047 	-0.00841661325188 	1.90883024176e-22
1.05976234695 	-0.0109097218053 	-1.86838318981e-24
1.07282863357 	-0.0140096035339 	-2.8288998196e-22
1.09074111471 	-0.0180958500791 	-3.08321483662e-22
1.11512677818 	-0.0240103331089 	9.32754389966e-22
1.14814773179 	-0.0333643844753 	3.46335990936e-21
1.19199314822 	-0.0485463674398 	8.1543216275e-22
1.2473041272 	-0.0739196105081 	3.13712604786e-21
1.23276606136 	-0.0858380233496 	2.08678960829e-21
0.140211578951 	-0.0704356903508 	-3.0592922553e-21
-0.191032972445 	-0.0427025392721 	-3.43335631857e-21
0.474201849267 	-0.0689570211684 	-8.79998537544e-21
1.28861222807 	-0.0821768333387 	-3.28548576111e-21
1.20340433475 	-0.0202773665039 	-3.6035952467e-21
1.14609851002 	0.0088513252009 	-1.34388603588e-22
1.11353542318 	0.0199959698795 	-4.63083824307e-21
1.09173277807 	0.0223818741933 	-1.42808348298e-21
1.07586162939 	0.0207479345416 	3.72661478753e-22
1.06376112777 	0.0176813339639 	4.62671407303e-22
1.05438530649 	0.0142592619478 	5.56980327872e-24
1.04703498442 	0.0110755706618 	-6.47643288273e-22
1.04151545817 	0.00792410985912 	5.783537255e-22
1.03773713167 	0.0052582338103 	5.17567131963e-22
1.04037879262 	-0.0022029877877 	-1.22133203578e-22
1.04487349873 	-0.00287198908747 	-4.11025743337e-22
1.0516955239 	-0.00360293472971 	-2.77369804809e-22
1.06121199009 	-0.00378878760941 	6.13618259333e-23
1.07431846125 	-0.0034488084379 	-6.51368667355e-22
1.09273444771 	-0.00230356018818 	4.73541032746e-22
1.11795995121 	-0.000659677320753 	-1.19205861244e-21
1.15286430104 	0.00172566100965 	-9.34883179009e-23
1.20575920363 	0.000766418101234 	-2.78780955409e-21
1.27617804334 	-0.00832620182141 	-3.31530361672e-21
1.22929529619 	-0.030007795725 	6.12524158582e-21
0.317363440116 	-0.218033547654 	7.81965350177e-21
-0.183675671765 	-0.394947463798 	5.23807780045e-22
0.510395306492 	-0.352209824438 	1.13257796808e-20
1.14932001969 	-0.190531383311 	-2.13139527314e-21
1.13613206657 	-0.06534417074 	-2.32092013791e-21
1.12201295655 	-0.0156541773833 	-1.7274306103e-21
1.10426422215 	0.00684226787384 	2.8371448483e-22
1.09020523155 	0.013667537843 	1.79868823659e-21
1.0776821758 	0.0143953155204 	-6.56293310112e-22
1.06632482531 	0.0128108337671 	1.00210773846e-21
1.05728188531 	0.0104915547798 	-1.19536945389e-22
1.04979806378 	0.00827183283891 	7.69849596215e-22
1.04413892104 	0.00596693541715 	9.65014764649e-22
1.0402254277 	0.00394512840219 	-3.2960192451e-23
1.04084119833 	-0.000484265982418 	3.9592490361e-22
1.04513538354 	-0.000100003091494 	4.08844406495e-22
1.05125492455 	0.000810601230231 	-2.32064466732e-22
1.05993313796 	0.00276335318214 	-8.37483201355e-23
1.07175800257 	0.00644521585129 	2.99993718843e-22
1.08821444951 	0.0124563896524 	1.62171348464e-22
1.1119995614 	0.0233244805347 	-2.39272768177e-22
1.14305861571 	0.0353154131624 	8.08716493503e-22
1.1942625556 	0.0574866080961 	3.04120803649e-20
1.28213573955 	0.0822893519414 	2.83498521279e-21
1.26635023382 	0.0969771453811 	1.19450515105e-21
0.626879991218 	-0.0979459526835 	5.5081562146e-21
-0.0373011268989 	-0.39383797849 	-4.34549001647e-22
0.296453659899 	-0.382944287217 	1.36992255924e-21
0.964356050826 	-0.153956439705 	-6.5661630616e-22
1.06474600436 	-0.0436539405152 	1.28026536932e-21
1.09102613246 	-0.00616658605167 	1.69939372985e-20
1.09312991976 	0.00639274454986 	3.85857608237e-22
1.08812963228 	0.00963483734337 	2.44759310905e-21
1.07821264881 	0.00968995851778 	-2.96708628608e-22
1.06802232616 	0.00841423614013 	-8.33213385752e-22
1.05926532109 	0.00674221106496 	1.73707218721e-22
1.05168671814 	0.00533281433895 	3.71923425192e-22
1.04603432212 	0.00384362626127 	-8.51322431246e-22
1.04192601298 	0.00248748269544 	-7.43263395844e-22
1.04044169433 	0.000940821114929 	-5.92933642144e-22
1.0441515382 	0.00212088205289 	-2.50439356518e-22
1.04918971761 	0.00419428060999 	-5.09063635149e-23
1.0563582308 	0.00775742628837 	-2.42286463879e-22
1.06605263231 	0.0141324268527 	2.64644380423e-22
1.07843038757 	0.0246335136904 	-8.90968261887e-22
1.0938594512 	0.0387260331257 	-8.68017789556e-22
1.11851262556 	0.0655014676435 	-1.31365008821e-21
1.15220396835 	0.107383454844 	4.2086779433e-21
1.22012775659 	0.178529177395 	7.56646548159e-22
1.23844018067 	0.277165630027 	-8.37860678567e-21
0.868146572475 	0.266363510178 	-6.67194086739e-21
0.229591051955 	0.0471263013444 	-1.15489844268e-21
0.175417299848 	-0.137772025118 	-7.47880268037e-22
0.81043703085 	-0.022667018733 	4.30921493862e-22
1.03752890364 	0.0327157445209 	-6.58684396943e-23
1.08290111536 	0.0200097160297 	1.017287953e-21
1.09322358239 	0.0131932457835 	-4.69736123487e-22
1.08857074464 	0.00907451590171 	9.96294724476e-22
1.07963221492 	0.00445938406641 	9.88483698271e-22
1.06982646693 	0.00402203977809 	-1.52057709025e-21
1.06054948435 	0.00287003518794 	3.41612284592e-22
1.05272558073 	0.00222148065503 	1.10104859211e-22
1.04707154425 	0.00144843744162 	9.17945331746e-22
1.04292216679 	0.000908840333411 	4.21905713292e-22
1.03940327986 	0.00175957001659 	7.12630548505e-22
1.04231946727 	0.00346060504738 	-1.6108194519e-21
1.04608648309 	0.00608375723162 	1.02643334671e-21
1.05131538893 	0.0104518708206 	5.63103008523e-24
1.05711185446 	0.0172440141854 	1.85194880499e-21
1.06358663252 	0.0278136192842 	-4.50951002669e-22
1.0722842535 	0.0468294517456 	-1.80151943102e-21
1.08118607497 	0.0776924710872 	9.57847251929e-23
1.09018950106 	0.12853163136 	1.28963888678e-21
1.1077371824 	0.216840831401 	1.17564866383e-21
1.12193429844 	0.365192221775 	-7.6625905494e-21
0.894548153626 	0.466465973742 	1.05246677109e-22
0.440578435725 	0.407288764569 	-3.75264941109e-22
0.305132969156 	0.254007588359 	6.43688584514e-23
0.740371978693 	0.134867325519 	2.82897262401e-21
1.07357262747 	0.104368678904 	-4.40707916502e-22
1.11342736339 	0.0438230815582 	2.36867804813e-22
1.10650023278 	0.0176799874667 	8.83713219255e-23
1.09560569181 	0.00507006703064 	-1.59679314746e-21
1.08168825632 	0.00132855092889 	-6.76339903652e-22
1.07060858374 	-0.000993405248447 	1.78088776428e-21
1.060684266 	-0.00220752122229 	-1.52146397415e-24
1.05289787746 	-0.00119193070399 	-1.98843157681e-21
1.04731283339 	-0.00114952402004 	3.42063270522e-21
1.04299608294 	-0.000519643466294 	-1.17619812115e-22
1.03807446415 	0.00211697526708 	-5.41449182799e-22
1.04042463029 	0.00382229901738 	-1.22008395588e-23
1.0429417739 	0.00611510368468 	1.88714064627e-21
1.04560018164 	0.00961543110362 	-1.01967694568e-21
1.0480356591 	0.0155655704864 	1.63106649568e-21
1.05048730874 	0.0256386817807 	-1.85279469398e-21
1.04831729893 	0.0427446470327 	2.08350911186e-22
1.04327754157 	0.0694409691341 	-1.27219077585e-23
1.02490477983 	0.115381249821 	1.25342390504e-21
0.994986516621 	0.195211282445 	-1.56599683693e-21
0.959074104111 	0.330637521375 	1.85345466802e-21
0.811295040739 	0.452995755306 	1.62525593439e-21
0.494527568232 	0.528622823794 	-2.36459521788e-22
0.463308914908 	0.464692033039 	-9.09935776153e-22
0.851182532989 	0.234507866377 	-8.86460076616e-23
1.16509636013 	0.100914335144 	-9.05738354703e-22
1.17047133767 	0.0329102845102 	8.42328116724e-22
1.1262401718 	0.00409005653727 	9.26216280436e-24
1.1037691972 	-0.00557643743997 	3.6143693119e-22
1.08366576664 	-0.00815522348967 	-2.55117960405e-21
1.07044072277 	-0.00707155159395 	2.22674759959e-21
1.05944063735 	-0.00576686384926 	-3.51260342844e-22
1.05127006868 	-0.00546684278481 	-3.9109490548e-21
1.04662899462 	-0.00383031290118 	-9.39175886208e-23
1.04228579972 	-0.0020550154691 	8.01373456347e-22
1.03676339235 	0.00208262390088 	3.81589272161e-22
1.03856977827 	0.00352436387547 	-2.30939696438e-22
1.04003309035 	0.0047367557387 	-1.79018268359e-22
1.04176637526 	0.00725849273893 	1.06967556064e-22
1.04269486317 	0.0110736201935 	1.16367944702e-22
1.04001638618 	0.0172229744004 	4.52753825759e-22
1.03123126868 	0.0265353566906 	1.00714329691e-22
1.01477942436 	0.0429768838239 	8.24556672531e-23
0.973242625998 	0.0730669327603 	-5.48418854349e-23
0.915102763529 	0.126831294258 	-8.84255672901e-23
0.828643440206 	0.207231982503 	-5.64304835051e-23
0.653172288394 	0.366637370433 	-7.97353448542e-23
0.499426311088 	0.429910723159 	-6.34461131981e-22
0.645363325707 	0.309719572791 	1.82613679202e-21
1.06165966851 	0.0518255928613 	2.08271387462e-21
1.23925455784 	-0.0136023174489 	2.66779316469e-22
1.20242116755 	-0.0268407063448 	-2.28605885366e-23
1.13447550234 	-0.0291987875749 	-1.29990880331e-22
1.10415868987 	-0.0233626593166 	1.10421599858e-22
1.08277140307 	-0.0204704792569 	8.55748933259e-22
1.0673556897 	-0.0144108809032 	3.77597373673e-22
1.05701454782 	-0.0110999295282 	2.95803146405e-22
1.04916144495 	-0.00743035030373 	-4.48997717264e-22
1.04484417571 	-0.00559433047865 	-1.26977502971e-21
1.04050030465 	-0.0036107228648 	-8.7248795642e-22
1.03560286457 	0.0020165138952 	-8.21606187556e-22
1.03702017459 	0.00258642147416 	2.68931295924e-22
1.0391598062 	0.00328125599126 	2.83666809033e-23
1.04056350578 	0.00407546038679 	2.57512280784e-23
1.04045568679 	0.00459204628262 	1.48863318992e-24
1.03748711637 	0.00414318488427 	1.75895689332e-22
1.02861781462 	0.00156164979149 	-2.21504087791e-22
1.0057732167 	0.000641268211711 	8.46703335959e-24
0.949673326879 	-0.000699170807258 	-2.70453363782e-23
0.856401298593 	0.00439591569369 	1.05771154187e-23
0.70172843786 	0.087792397835 	5.29034878694e-22
0.581396435599 	0.148360897974 	7.98735168067e-25
0.620404732935 	0.064144408144 	-4.63267508133e-22
0.868638214653 	-0.0926613822157 	1.92217765271e-21
1.13091294846 	-0.176629981846 	6.01451343663e-22
1.2290666687 	-0.157333310403 	1.38705834375e-23
1.18534195263 	-0.0956013613834 	3.10051622787e-23
1.11650527282 	-0.0672613567153 	4.64598266671e-23
1.09233213332 	-0.0440951204077 	1.25930833902e-21
1.07505584369 	-0.0313317254726 	-3.81641955757e-22
1.06101173874 	-0.0214652458439 	-5.30059298602e-22
1.05288047132 	-0.0148020077933 	7.00712431955e-23
1.04591474041 	-0.0104080479418 	-1.28930865432e-23
1.04119204494 	-0.00699067966366 	1.09161534426e-21
1.03819227333 	-0.00470285399969 	2.12158421204e-22
1.03498705334 	0.00111113648004 	-1.09553334382e-22
1.03710497578 	0.00172035362939 	-1.12586603399e-22
1.03957259214 	0.001654676651 	5.74007115002e-23
1.04154595818 	0.000558739907579 	5.24153442052e-23
1.04269944785 	-0.00245389038 	1.85744141377e-23
1.04184629161 	-0.00870814576728 	-2.51159708569e-22
1.03509088089 	-0.0190999294101 	-3.4446585645e-23
1.01687783209 	-0.0427393036306 	6.0343099489e-22
0.966499150082 	-0.0822505877559 	-4.32767115878e-22
0.839840632034 	-0.120811247464 	-4.15305181175e-22
0.699109141937 	-0.149389742821 	5.04869435297e-22
0.6529822786 	-0.20113829584 	0
0.743277713357 	-0.27079666103 	-2.54453177319e-35
0.931390949613 	-0.315760062964 	-4.03392923685e-24
1.08796802835 	-0.296389539723 	-8.64191867572e-22
1.13976044163 	-0.216252885146 	5.17951805027e-22
1.11767920089 	-0.134267795094 	7.57057745418e-22
1.08579709835 	-0.0833331063901 	-7.53937367106e-22
1.0700006055 	-0.0557495722784 	4.58380013397e-23
1.06024103886 	-0.0373640752884 	5.44001884356e-22
1.05167492892 	-0.0252495513252 	1.97601395763e-22
1.04577416546 	-0.0174143009932 	-1.89632062147e-23
1.04152263906 	-0.0117300061035 	2.01044087693e-22
1.03793045113 	-0.00761966111549 	-7.00872158497e-22
1.03551817339 	-0.00447216625059 	-6.54546763127e-22
1.03457406296 	0.00115038990698 	0
1.03717491683 	0.00158503811426 	0
1.04057393906 	0.00114624505635 	0
1.04471916776 	-0.000687003123343 	0
1.04947382967 	-0.00521956082133 	0
1.05493537581 	-0.0151774277639 	0
1.06134527496 	-0.0316592153584 	0
1.06421266737 	-0.0708519723055 	0
1.02885549566 	-0.137336967475 	0
0.898258580002 	-0.221381986932 	0
0.752582092168 	-0.297065558875 	0
0.701521612956 	-0.352246576381 	0
0.764801789592 	-0.385511565824 	0
0.911187880066 	-0.375355103932 	0
1.02146592381 	-0.310744528047 	0
1.05251584093 	-0.215774151906 	0
1.0527636061 	-0.135167878209 	0
1.05014109632 	-0.0859200848336 	0
1.04830456481 	-0.0576504273435 	0
1.04511855482 	-0.0381286361978 	0
1.04208742496 	-0.025388135533 	0
1.03934281394 	-0.0174691963854 	0
1.03683808664 	-0.0116691439502 	0
1.03470120064 	-0.00762088598748 	0
1.03307814142 	-0.00464409779098 	0
1.03403163156 	0.00148964969053 	0
1.03703533845 	0.00190275587519 	0
1.04137044311 	0.00183837446196 	0
1.0475077958 	0.000498891072655 	0
1.05629161145 	-0.00213008102414 	0
1.06876611413 	-0.0103052348284 	0
1.09025138208 	-0.0232734885511 	0
1.12091471208 	-0.0510227053142 	0
1.11851169666 	-0.108624164945 	0
0.995210425433 	-0.208184949636 	0
0.81994076954 	-0.314523879318 	0
0.735857681283 	-0.379882231116 	0
0.757602155114 	-0.403069651162 	0
0.849368848917 	-0.372354723257 	0
0.926945070045 	-0.284785882005 	0
0.963340188962 	-0.189521306251 	0
0.992082418279 	-0.121909401375 	0
1.01374391992 	-0.0776161555216 	0
1.02574759906 	-0.0501307431176 	0
1.03031366467 	-0.0324162097636 	0
1.03268809864 	-0.021411822799 	0
1.03318359504 	-0.014489075923 	0
1.03247039669 	-0.00972222025485 	0
1.03160188181 	-0.00649090563426 	0
1.0307226052 	-0.0040324282024 	0
1.03341443528 	0.00214209189809 	0
1.03664793074 	0.00301700454414 	0
1.04164643293 	0.0040424972622 	0
1.04841770612 	0.00431255206946 	0
1.05958633347 	0.00545144848088 	0
1.07556934441 	0.00414331268244 	0
1.10223234896 	0.00281561231282 	0
1.14844772507 	0.00181350023922 	0
1.18387164643 	-0.0108576674827 	0
1.10552081771 	-0.0667781844253 	0
0.926113514467 	-0.172390234487 	0
0.791572335182 	-0.266584640018 	0
0.753893495731 	-0.303835846199 	0
0.782941536307 	-0.275665561337 	0
0.832176801698 	-0.200058959616 	0
0.886706218455 	-0.127363387519 	0
0.940915213521 	-0.0805312222465 	0
0.979457836756 	-0.0497393257044 	0
1.00401696294 	-0.0303033912022 	0
1.01753533835 	-0.0193077665994 	0
1.0248649906 	-0.0131028232741 	0
1.02825912671 	-0.00901860390965 	0
1.02920186946 	-0.00639090074966 	0
1.02920614528 	-0.00450088379889 	0
1.02875845555 	-0.00290099768649 	0
1.03229256363 	0.00294974653371 	0
1.03536908515 	0.00461570245057 	0
1.04036256853 	0.00704304298358 	0
1.04663237049 	0.00957458777373 	0
1.05744139752 	0.0141774364905 	0
1.07251887581 	0.0199695507724 	0
1.09479266416 	0.0297825216657 	0
1.13664103534 	0.0486946666647 	0
1.18620405618 	0.0779740531125 	0
1.16216147139 	0.0956093605029 	0
1.03210817441 	0.0543648202567 	0
0.877625316281 	-0.0230409274896 	0
0.775958655985 	-0.0675663287226 	0
0.751458335479 	-0.0684819941365 	0
0.779192427884 	-0.0415284926164 	0
0.841614875634 	-0.0121339443492 	0
0.913135864426 	0.00219437056232 	0
0.962455667885 	0.00535297526745 	0
0.993693337221 	0.00338516138748 	0
1.0120902059 	0.000831932018293 	0
1.02157081346 	-0.00117619226011 	0
1.02607966947 	-0.00196529245323 	0
1.02763256034 	-0.00220710498157 	0
1.02787808228 	-0.00198522500552 	0
1.02752339961 	-0.00143985313009 	0
1.03038464233 	0.00364741512953 	0
1.03286997135 	0.00593994875628 	0
1.03696617864 	0.00934537908177 	0
1.04190183852 	0.0137305666938 	0
1.05017274857 	0.0205596408431 	0
1.06127219012 	0.0308738482215 	0
1.07568967736 	0.0468738023585 	0
1.1021955748 	0.073531788501 	0
1.1373285244 	0.120029507912 	0
1.13110954463 	0.178895672691 	0
1.05313390726 	0.209773120714 	0
0.925290618558 	0.197668768551 	0
0.808031643247 	0.173764372891 	0
0.7619665352 	0.148689791506 	0
0.777294548315 	0.130705577436 	0
0.839705428033 	0.119359748242 	0
0.921388764739 	0.0987148858026 	0
0.977734312672 	0.0684712472721 	0
1.00727032612 	0.0394370953233 	0
1.0210054748 	0.0211808715235 	0
1.02659594225 	0.0104812911792 	0
1.02862170271 	0.00467754071642 	0
1.02867623061 	0.00167713219171 	0
1.02809431337 	0.000285992679821 	0
1.02731344437 	-0.000147290684428 	0
1.02796239041 	0.00383118815215 	0
1.02960464858 	0.00628097943075 	0
1.03223064638 	0.00990232890919 	0
1.03522835938 	0.0150533825362 	0
1.03984013105 	0.0229764561174 	0
1.04562701605 	0.0356852357976 	0
1.05179574612 	0.055201148522 	0
1.06168252136 	0.0852122899166 	0
1.07430395704 	0.135548869704 	0
1.06249915506 	0.204307493272 	0
1.01012781106 	0.270215192317 	0
0.91700202689 	0.303889754563 	0
0.82609202875 	0.30061869133 	0
0.791700757688 	0.275497787058 	0
0.806860615049 	0.243064687683 	0
0.872882061215 	0.20715163164 	0
0.963184815544 	0.159767283926 	0
1.02256752606 	0.103258940525 	0
1.0422522865 	0.0575130917662 	0
1.04200291341 	0.0314457388461 	0
1.03848092877 	0.0164190754463 	0
1.03512670948 	0.00827123655919 	0
1.03203641421 	0.0037626033732 	0
1.02964920924 	0.0014612712627 	0
1.02787635887 	0.000515229796932 	0
1.02570248417 	0.00316675246239 	0
1.02655559803 	0.00522794355354 	0
1.02765367788 	0.0083328473646 	0
1.02838372371 	0.0130835248101 	0
1.02876996123 	0.0208035215015 	0
1.02827527093 	0.0336780353867 	0
1.02528199772 	0.0545161531863 	0
1.02041569742 	0.0854058126781 	0
1.0135485577 	0.133288485877 	0
0.987631689139 	0.197964249457 	0
0.945739210188 	0.271497742102 	0
0.888858375722 	0.324567169171 	0
0.834655276924 	0.332676884243 	0
0.819585850816 	0.312886592847 	0
0.843948596446 	0.277433682224 	0
0.92306181357 	0.2247952335 	0
1.02630188884 	0.154915700366 	0
1.08104936949 	0.0878379211197 	0
1.08092577218 	0.0474708032175 	0
1.06369643709 	0.0265948918572 	0
1.05071671227 	0.0140265085169 	0
1.04191747872 	0.00742365557468 	0
1.03581343803 	0.00345049281145 	0
1.03153016825 	0.00138886396184 	0
1.02865097986 	0.00051952718519 	0
1.02415763213 	0.00183298602545 	0
1.0244415003 	0.00305909690451 	0
1.02431014854 	0.00497658396471 	0
1.02293739061 	0.00793100196762 	0
1.01932525266 	0.0130443814842 	0
1.01226989692 	0.0218656895543 	0
1.00009371232 	0.0377199335686 	0
0.983339402329 	0.0614168653479 	0
0.960599203021 	0.098366773592 	0
0.919649752773 	0.150677305062 	0
0.878584259169 	0.211945433401 	0
0.851046053637 	0.270177091702 	0
0.834136195025 	0.292181175375 	0
0.844399506846 	0.276625341683 	0
0.894705076554 	0.229161566856 	0
0.997487955786 	0.153281183918 	0
1.10002811014 	0.0793374445537 	0
1.12881432828 	0.0338445577991 	0
1.10395277351 	0.0180093666003 	0
1.07606317964 	0.0105946199599 	0
1.05780582589 	0.00529054950582 	0
1.04579463792 	0.00285584817575 	0
1.03808467553 	0.00114098396294 	0
1.03266779563 	0.000382724628759 	0
1.029140417 	3.98961678841e-05 	0
1.02354950042 	0.000362538902743 	0
1.02360957272 	0.000446119747267 	0
1.0229665155 	0.000495067529697 	0
1.02067271517 	0.000287317775231 	0
1.01509684297 	7.48989128977e-05 	0
1.00403031458 	-4.11691878531e-05 	0
0.985796584219 	0.00214242954665 	0
0.960550272336 	0.00818677248485 	0
0.924446763138 	0.0246688919675 	0
0.872392878793 	0.0537900282213 	0
0.828388998788 	0.0854270480878 	0
0.814495542594 	0.118918305552 	0
0.831948549074 	0.136650580196 	0
0.88357932857 	0.12347739001 	0
0.969629566833 	0.0752034062904 	0
1.07562414888 	0.0108538922947 	0
1.14557053557 	-0.0235551905553 	0
1.14161918514 	-0.0238866895036 	0
1.10467304389 	-0.0137549029821 	0
1.0767499188 	-0.00806223889209 	0
1.05843708918 	-0.00548719530728 	0
1.04597925242 	-0.00342254505873 	0
1.03814567097 	-0.00237939240092 	0
1.03253716097 	-0.00141337511853 	0
1.02900735266 	-0.000872126743124 	0
1.02388776142 	-0.000943685990267 	0
1.02432526707 	-0.00201846149481 	0
1.02435829923 	-0.00401128189167 	0
1.02327427799 	-0.00763139653462 	0
1.01944732145 	-0.0138121248899 	0
1.01005145532 	-0.0242319108635 	0
0.991341112637 	-0.0397564322029 	0
0.960820690161 	-0.056551527085 	0
0.914408804087 	-0.0649667746954 	0
0.857152869755 	-0.0643949216809 	0
0.815231921381 	-0.0655557169833 	0
0.805685685997 	-0.0707975700134 	0
0.837605206071 	-0.0763738475358 	0
0.914829787569 	-0.0850046368396 	0
1.01481309214 	-0.102398040227 	0
1.10004489335 	-0.11384417855 	0
1.13534022933 	-0.0963751809425 	0
1.11950364575 	-0.063044064204 	0
1.08932381921 	-0.0375261625661 	0
1.06857448806 	-0.0232601944573 	0
1.05369535458 	-0.0146988007303 	0
1.04301547265 	-0.00914799904365 	0
1.03622463952 	-0.00582425484428 	0
1.0312140225 	-0.00345294208034 	0
1.02812229404 	-0.00201830688369 	0
1.0250895167 	-0.00190792352232 	0
1.0265505445 	-0.00374987578248 	0
1.02836299166 	-0.00704918125112 	0
1.0303622105 	-0.0127302073998 	0
1.03166705709 	-0.0224109693674 	0
1.0300504563 	-0.0390238836861 	0
1.01771698156 	-0.0669587668707 	0
0.985701369736 	-0.103360227837 	0
0.931864773663 	-0.134575183413 	0
0.871162109347 	-0.157526381465 	0
0.832242182151 	-0.180268072899 	0
0.822998185683 	-0.203262877368 	0
0.846989774643 	-0.220067207443 	0
0.913848101287 	-0.221910489358 	0
1.00152502857 	-0.206922947252 	0
1.07028715101 	-0.176394427446 	0
1.0925694409 	-0.131014123539 	0
1.08071893685 	-0.0851685132262 	0
1.06540402132 	-0.0530554298643 	0
1.0543052823 	-0.0333596444429 	0
1.04471196112 	-0.0206729202118 	0
1.03744060566 	-0.0127323315883 	0
1.03266741968 	-0.00789059929871 	0
1.02894401405 	-0.00469867715225 	0
1.02659222542 	-0.00274494355381 	0
1.02682908666 	-0.00218493529054 	0
1.02955236835 	-0.00412572305834 	0
1.03346429953 	-0.00743554647858 	0
1.03897931079 	-0.0130082602354 	0
1.04638330705 	-0.0221991471173 	0
1.05530204399 	-0.0381990926415 	0
1.05623566383 	-0.0660420773006 	0
1.02841249887 	-0.111545390187 	0
0.968924632884 	-0.16071903233 	0
0.902699681532 	-0.199995281219 	0
0.860678964537 	-0.233414562744 	0
0.846043452773 	-0.258401964497 	0
0.855013363883 	-0.274071399891 	0
0.89845449518 	-0.271486740763 	0
0.962560935481 	-0.242761543161 	0
1.01830137733 	-0.193594706675 	0
1.0406447634 	-0.137930046169 	0
1.03880834451 	-0.0921910847688 	0
1.03719810415 	-0.0591685321109 	0
1.03582070866 	-0.0365266670453 	0
1.03282585239 	-0.0219562920995 	0
1.0301220172 	-0.0130987265827 	0
1.02806799438 	-0.00783275748696 	0
1.02609341198 	-0.00452911923247 	0
1.02471738501 	-0.00256736188216 	0
1.02840438825 	-0.00163034322513 	0
1.03203153816 	-0.002989288226 	0
1.0375077617 	-0.00514759260706 	0
1.04554922549 	-0.00878472845292 	0
1.05749230808 	-0.014350326751 	0
1.07466302338 	-0.0242866845293 	0
1.09115004596 	-0.0407349488377 	0
1.08029693379 	-0.0762294697026 	0
1.02180512996 	-0.132183472047 	0
0.943935308653 	-0.187548939947 	0
0.889826437025 	-0.231503442725 	0
0.863863902346 	-0.257370398646 	0
0.858618897193 	-0.268500800369 	0
0.879648274542 	-0.25955255778 	0
0.916689949977 	-0.221954544136 	0
0.959991394152 	-0.168546205669 	0
0.989995995775 	-0.11567410961 	0