1.01390331077 	-0.00783186738219 	-7.65768316531e-22
1.01508266603 	-0.0121590289069 	-6.03272756618e-22
1.01649550181 	-0.0169593862881 	2.59255766047e-22
1.01816231977 	-0.0225446383447 	-2.91100595038e-23
1.01975567494 	-0.0290733664107 	-2.48845726875e-22
1.02079170914 	-0.0368717582322 	-1.75125773493e-22
1.0202596797 	-0.0458378424906 	-1.95150424339e-22
1.01643009133 	-0.0550945997888 	-1.12365179398e-21
1.00729160753 	-0.0661222878023 	1.69558987567e-20
0.988416536768 	-0.0721020930772 	1.42751483733e-21
0.960522760715 	-0.0671676597636 	7.77432792565e-23
0.93087249017 	-0.0425915153978 	1.9211348782e-21
0.916400578935 	0.000888445631758 	-4.95201361147e-24
0.929155874883 	0.0449571307468 	2.0409573708e-22
0.95786219163 	0.0705311048768 	-1.63946995312e-21
0.985700953036 	0.0764577988126 	1.98306958647e-21
1.00522959937 	0.0708514487008 	2.14603744327e-20
1.01519987536 	0.0591615380249 	-1.75463385446e-21
1.01989314308 	0.0496645960443 	-1.86630305678e-21
1.02080707777 	0.0397585358885 	3.96268825105e-22
1.01999979417 	0.0310993515003 	1.01248504499e-21
1.0185012503 	0.0238885558233 	-4.0410612865e-23
1.01683029222 	0.0177729489332 	-5.24324167071e-22
1.01536870441 	0.0126258481068 	1.26644507611e-21
1.01414614605 	0.00800871900161 	1.27606638585e-21
1.01822434356 	-0.00833668256775 	2.17259859706e-22
1.01983718544 	-0.0129385793582 	4.62966476832e-22
1.02196929128 	-0.0182574217281 	1.67967530723e-22
1.02455595553 	-0.0244375512713 	-7.09078267027e-23
1.02739840704 	-0.0318752775002 	3.94560419908e-22
1.03001389992 	-0.0411571060553 	-1.54943792651e-22
1.0314143003 	-0.0527714945806 	2.39940543071e-22
1.02969132781 	-0.0677091608463 	1.14668691189e-22
1.02083760797 	-0.0864424101009 	-4.53404997535e-22
0.997752370235 	-0.105297546443 	-2.04440167121e-21
0.951165274005 	-0.114881522247 	-3.2374134173e-21
0.883756611029 	-0.0859415019233 	9.69608675514e-21
0.844811206552 	0.000672571924727 	1.66810398189e-22
0.880712777055 	0.0882195713258 	1.00239447413e-20
0.946571968296 	0.119691620271 	-9.18124244834e-21
0.994070658845 	0.112309874362 	-2.57377149967e-21
1.01885936051 	0.0939108855984 	-6.0725079598e-22
1.02947068529 	0.0745370253477 	-4.03515453571e-22
1.03213358401 	0.0580959552024 	-9.97303424038e-22
1.03120709128 	0.0449813938413 	4.85457250426e-22
1.02864686891 	0.0343916225356 	-1.06498058697e-21
1.02561103083 	0.0259647679067 	1.91722759446e-22
1.02280559586 	0.0191010444595 	-9.25146305714e-22
1.02044418233 	0.0133595903343 	-1.17335530099e-21
1.01865909023 	0.0084934880857 	-7.16126173987e-23
1.02268375794 	-0.00855821828687 	4.88999117732e-24
1.02486765829 	-0.013159755503 	7.26224594999e-23
1.02781299538 	-0.0187203363351 	-2.14897243701e-23
1.03153475788 	-0.0251981304849 	1.08434802796e-24
1.03604988361 	-0.0331334554455 	5.49525905445e-23
1.04109464268 	-0.0433490580284 	-6.55684230661e-23
1.04600910781 	-0.0569750016257 	8.50928924465e-23
1.04930715752 	-0.0761238374399 	-1.92023527859e-24
1.04725103437 	-0.103889820592 	6.59845376856e-23
1.02996995717 	-0.145312096133 	5.08898996235e-22
0.969995375962 	-0.197792623783 	1.08092906076e-20
0.813259925533 	-0.208236045333 	-1.98221627528e-21
0.667556072622 	-0.00134817663001 	-2.65903289281e-21
0.807376198252 	0.206775905821 	-3.91354684516e-21
0.960626742205 	0.203430883182 	1.39894437383e-20
1.02442723388 	0.155958000006 	-9.52348412599e-22
1.04593220748 	0.11488610992 	-7.49653680469e-23
1.05083139037 	0.0851174048538 	1.69221515444e-21
1.04878782158 	0.0633251353376 	6.35100435535e-22
1.04401104351 	0.0474411508156 	-2.44546225785e-22
1.03854751626 	0.0355040367861 	-2.55415021318e-22
1.03344749181 	0.0264326517492 	3.60321068307e-24
1.02919802953 	0.0192552315296 	6.07341471649e-22
1.02580213038 	0.0132991298536 	-6.44652888199e-22
1.02328540013 	0.00850410238822 	-6.5526342821e-22
1.02720104461 	-0.00835660082201 	-3.79812772433e-24
1.02994254179 	-0.012882302439 	3.90536987592e-23
1.03370947337 	-0.0182719795897 	9.84683046662e-24
1.03868920446 	-0.0246270161949 	1.00734481431e-22
1.0449986542 	-0.0323913117181 	1.26746441599e-22
1.05285097682 	-0.0425573365767 	7.52240766454e-23
1.06239521569 	-0.0563843105878 	-5.07487389943e-22
1.07367155638 	-0.0765678000079 	-4.63351505795e-22
1.08623411858 	-0.108870476949 	8.7595714692e-22
1.09656206412 	-0.167552206516 	-1.96070872583e-21
1.08605376442 	-0.291658005597 	1.77846233175e-21
0.876463396487 	-0.594280848506 	5.93826799013e-22
0.859225413225 	0.573524748195 	1.60220422566e-21
1.06460670626 	0.301040298365 	-1.37126459839e-22
1.08851669547 	0.185329150099 	-5.07367697041e-23
1.08732844347 	0.124439190269 	-3.97672055283e-23
1.07877397289 	0.0873682987462 	3.50515129367e-22
1.06826909697 	0.0627412264423 	-9.49453264395e-23
1.05801652966 	0.0458284843019 	8.05615749681e-23
1.04895616746 	0.0337266455163 	1.27405282296e-22
1.04145128833 	0.0249264836781 	7.78135915254e-23
1.03553401212 	0.0180684848645 	-1.01140153847e-22
1.03106316699 	0.0124790067838 	2.45277432821e-23
1.02783429621 	0.00795033315095 	-1.5246570609e-23
1.03156428271 	-0.00762476073348 	2.96962948794e-23
1.03480839442 	-0.0120386753771 	-7.19266675166e-23
1.0393306358 	-0.0169182989722 	-7.33762953717e-23
1.04548491642 	-0.022713127595 	1.82998038975e-24
1.05342762524 	-0.02971391331 	-1.09412109762e-22
1.06385712078 	-0.0385663849955 	-7.62665091952e-24
1.07764520915 	-0.0501291542596 	-8.70646937633e-24
1.0966313734 	-0.0662714696567 	4.31670124432e-23
1.12519464472 	-0.0914262968368 	-6.90973916274e-22
1.17344455744 	-0.136641247707 	-3.20322870331e-22
1.27505416511 	-0.228942962838 	2.72697166754e-22
0.0363797343334 	0.00146347118882 	-1.5705588463e-21
1.23745319896 	0.265677777979 	-1.77390218701e-22
1.16872924964 	0.16965607992 	2.31170612117e-22
1.13384493428 	0.112664615845 	6.04807293611e-22
1.10827687991 	0.0773300799992 	-1.71052390086e-22
1.08787444855 	0.0545507043428 	-1.87480879576e-24
1.07152869478 	0.0394189095649 	1.97744827048e-24
1.05864287283 	0.0289120246834 	2.38674960537e-23
1.04878367344 	0.0213539972543 	-3.27660667264e-26
1.04126628675 	0.0155418643356 	-2.7504126036e-23
1.03582880014 	0.0108933909149 	-3.55501382053e-23
1.03199693018 	0.00680133291426 	3.86488912811e-23
1.03537955469 	-0.00686207630904 	-6.71888738314e-24
1.03910585511 	-0.0104623857304 	9.79314612697e-23
1.0443388305 	-0.0147577623925 	4.56309322781e-23
1.05140312701 	-0.0196214718929 	1.68159923495e-23
1.06049757985 	-0.0253874062377 	1.91101223891e-22
1.07255268695 	-0.0321161802647 	2.75987009058e-22
1.08848048934 	-0.0397644665518 	-1.56512635063e-21
1.11105391389 	-0.0481333231408 	4.42383816877e-22
1.14610093585 	-0.0566634721251 	2.02562238839e-21
1.20840299101 	-0.0640473721816 	-1.24561125102e-20
1.31856222412 	-0.0656772690202 	3.56915194623e-20
0.172077892375 	-0.0341020016915 	2.05227268038e-21
-0.00035831829081 	-0.00845677875481 	-4.22614724418e-22
0.0925955338584 	0.0213482560646 	1.33518686556e-22
1.28695950178 	0.153342237284 	-2.53104392344e-20
1.22552900184 	0.117506715946 	8.29231423009e-21
1.17178977735 	0.0800580735183 	8.17210947589e-22
1.13274340404 	0.0549767837494 	1.25653024883e-22
1.10370960429 	0.0388174021877 	1.05208987101e-21
1.08225004077 	0.0283501918234 	-1.73444568796e-22
1.06619133431 	0.0211732957862 	-1.14026533348e-22
1.0544928365 	0.0159584022347 	-5.60194083566e-24
1.04581439002 	0.0118944494043 	2.76638354219e-23
1.03957486174 	0.00842459911172 	2.44539629406e-23
1.0352821267 	0.00553634354254 	1.7450139169e-23
1.03870551061 	-0.0055803370212 	3.32628770631e-23
1.04269341961 	-0.00841359837121 	-5.60529671634e-22
1.04848898538 	-0.0119576656423 	6.3372499633e-22
1.05620872944 	-0.0157256903263 	-4.90779535421e-24
1.06594409005 	-0.0201443819007 	-4.59815237515e-22
1.07834787092 	-0.0247746653875 	-4.44369136789e-22
1.09403524412 	-0.0288181890468 	1.22745148936e-21
1.11416166501 	-0.0298404525979 	4.04195665522e-21
1.14220351285 	-0.0226287710606 	1.04661880265e-21
1.1888493387 	0.00518852402064 	3.78917490544e-21
1.25152761949 	0.0775228340618 	3.95795578331e-21
0.392727619611 	0.129410464556 	-5.77480419163e-21
-0.198682139897 	0.167797789157 	-3.15401993275e-21
0.22668774598 	0.132809814608 	-4.59900415468e-21
1.27517362506 	0.078069342081 	-1.71603904084e-21
1.26033907359 	0.0559758831677 	-3.09512296174e-21
1.19452928605 	0.0341097275337 	-9.75393977977e-23
1.14674586392 	0.0235581575415 	-4.01670275625e-21
1.11245859171 	0.0177378885936 	-1.10738290343e-21
1.08813707043 	0.0142097511006 	2.67018708213e-22
1.07057777387 	0.0116459569625 	2.93587308222e-22
1.05790093771 	0.0095002459207 	2.26645318114e-24
1.04873226888 	0.00757523765964 	-2.10532661563e-22
1.04210813575 	0.00552953039859 	1.43174272324e-22
1.03775368241 	0.00381453910554 	9.0468167289e-23
1.04132702289 	-0.00406676227876 	-4.24190314978e-22
1.04553662824 	-0.00613970627445 	-1.10446553655e-21
1.05165340952 	-0.00869757372878 	-7.32905844781e-22
1.05981123149 	-0.0113445402734 	1.08095479132e-22
1.06975870395 	-0.0145378140777 	-8.83626095569e-22
1.08225339006 	-0.0177290620483 	5.42397186989e-22
1.09588771202 	-0.0200373199177 	-1.31936695683e-21
1.11036145229 	-0.0186963426011 	-8.25851384577e-23
1.12363724431 	-0.00496490139755 	-2.28464426378e-21
1.12850130398 	0.0324364978607 	-2.77706543375e-21
1.09332669487 	0.147847630074 	4.93480983356e-21
0.324417143712 	0.347960439144 	9.89611271948e-21
-0.172298013988 	0.404277488229 	5.54656914933e-22
0.477732285128 	0.182023059664 	1.07652192906e-20
1.28894508133 	-0.0192120225758 	-1.97843858952e-21
1.2776555484 	-0.0266432270832 	-2.48006820159e-21
1.20085824913 	-0.0211244887668 	-1.99341909202e-21
1.14615879019 	-0.0125476014488 	3.18901002374e-22
1.11207323094 	-0.00518409452748 	1.63585393586e-21
1.08811320984 	-0.000798885661064 	-5.75247489371e-22
1.07091426428 	0.00183906690343 	7.37457775768e-22
1.05867931868 	0.00298101280433 	-6.79559853265e-23
1.04983393856 	0.00321155153898 	3.04895492638e-22
1.04346230183 	0.00269805668174 	3.82499262222e-22
1.03927657959 	0.00210460733944 	2.90493812444e-23
1.04303292878 	-0.0023905124752 	1.20794759079e-21
1.04749869873 	-0.00364715545692 	1.00016238549e-21
1.05374587859 	-0.00508453368564 	-3.97353795358e-22
1.06224610177 	-0.00656282795865 	-1.48466348292e-22
1.07243765053 	-0.00865772081355 	4.97629636718e-22
1.08468694152 	-0.0110531114994 	1.93125940985e-22
1.09798236588 	-0.0132734951009 	-2.14542521518e-22
1.10706454894 	-0.0162842660132 	5.22656524919e-22
1.10796588565 	-0.0149823971105 	1.57241298828e-20
1.08201588473 	-0.00372858640295 	7.73667195493e-22
0.918224858961 	0.0771678119707 	1.46781441697e-23
0.123723601089 	0.273932358981 	1.44843954923e-21
0.0236448108805 	0.17847567958 	-5.56123600299e-22
0.772843774738 	-0.0856502051033 	2.67180813737e-21
1.2862776375 	-0.186325814758 	-2.59957621083e-21
1.25311345781 	-0.123296367066 	3.36174331577e-21
1.17539081361 	-0.0755122390452 	3.06133393862e-20
1.12957498802 	-0.0433216768606 	6.11991832707e-22
1.10283382629 	-0.0264702739419 	2.81492527063e-21
1.08194211495 	-0.0135745929485 	-2.59045574752e-22
1.06744868634 	-0.00664477899034 	-5.62886126996e-22
1.05698459245 	-0.0025568352829 	1.00827154683e-22
1.04922551346 	-0.000529948362089 	2.13965304372e-22
1.043688531 	0.000344366675663 	-3.56363998123e-22
1.03975631686 	0.000632888578679 	-2.43357649381e-22
1.04387067737 	-0.000490632910458 	-1.51295276875e-21
1.04837311799 	-0.00079720485039 	-5.7093134998e-22
1.05463227668 	-0.00119188583813 	-1.26868975793e-22
1.06344406801 	-0.00136750962086 	-3.88316444763e-22
1.07453549585 	-0.00212805861483 	1.76234463729e-22
1.08694948572 	-0.00236529297771 	-9.87046561613e-22
1.10089439817 	-0.00801532641476 	-8.77101753486e-22
1.11460722781 	-0.0156383323839 	-7.07793109626e-22
1.11953831142 	-0.0315716217571 	1.30432573294e-21
1.09012655615 	-0.0701987800871 	-2.26878247383e-22
0.795764744771 	-0.0571756744143 	7.55124074103e-22
0.158105928754 	-0.0874499971356 	6.39377671095e-22
0.281778764373 	-0.28346212944 	-1.16019130198e-21
0.894107361847 	-0.410212446238 	5.1896880312e-21
1.19378778897 	-0.329430052406 	-3.70222371819e-21
1.15917099557 	-0.194621726863 	1.69750662707e-21
1.12260779337 	-0.112517616891 	3.85149436032e-21
1.09950478566 	-0.0657145339027 	-9.67221199819e-22
1.08230399479 	-0.0372161323413 	1.01515507352e-21
1.07127622396 	-0.0222834999554 	8.82759375842e-22
1.06149498132 	-0.0122001799027 	-1.29809087691e-21
1.05348277023 	-0.00619456835228 	2.07095209594e-22
1.04733737842 	-0.00307309810624 	3.57500489058e-23
1.04287347111 	-0.00140366146937 	3.90294998144e-22
1.03951203101 	-0.000511359061019 	1.44777429642e-22
1.0436395655 	0.00108060072559 	1.81679231591e-21
1.04814676407 	0.00227240316814 	-3.46626165022e-21
1.05420164966 	0.00291517521624 	1.90876453902e-21
1.0627036659 	0.00498179637241 	7.47886158513e-24
1.07407535275 	0.00519550197265 	2.39529587046e-21
1.08802514655 	0.00474448668956 	-5.8727312536e-22
1.10707608758 	0.00426230149808 	-1.67252510726e-21
1.12831439388 	-0.0057740456868 	9.53550816472e-23
1.16085955997 	-0.0260276576647 	6.70453292884e-22
1.15737493744 	-0.0921574187931 	-5.79167160526e-23
0.849850135792 	-0.18064517924 	-6.59864419982e-22
0.327986569183 	-0.414493879912 	7.36343661691e-23
0.403744416763 	-0.51388395267 	-3.4252277397e-22
0.843180130917 	-0.468076057329 	7.48939061415e-23
1.04253578654 	-0.341731390398 	-5.59786871101e-21
1.04557912398 	-0.19841667035 	7.33457136526e-22
1.05845588357 	-0.116335613129 	8.95070114358e-22
1.06207409867 	-0.0675266221439 	1.02188615311e-22
1.06164004219 	-0.0388294563087 	-1.83931094784e-21
1.05741929307 	-0.0220464208569 	-5.30800007035e-22
1.05357585036 	-0.0132253037646 	1.37301439913e-21
1.04931752035 	-0.00757621903766 	-1.14893194936e-24
1.04485427219 	-0.00425753594756 	-1.02530388713e-21
1.04146659014 	-0.00236024946201 	1.50713420839e-21
1.03880024694 	-0.00112980388066 	-1.80914438604e-23
1.04249948634 	0.00272435330791 	-1.36867902817e-21
1.04690378968 	0.00516724666269 	6.65694528891e-23
1.05170847359 	0.00744098667916 	3.86498625398e-21
1.05998552207 	0.00917596975506 	-1.79675472999e-21
1.07160394093 	0.0128294712026 	2.56992259641e-21
1.0858464361 	0.0171764824522 	-2.75134580642e-21
1.1093900586 	0.0212493098078 	3.08588463552e-22
1.13659537097 	0.0226169757904 	-4.85149112108e-24
1.20181790619 	0.0173370964665 	2.20721694677e-21
1.23669536007 	-0.0171839060997 	-2.67441512485e-21
1.02239805888 	-0.103876340576 	3.28340683032e-21
0.529254133629 	-0.399248931183 	2.65414863479e-21
0.416619351788 	-0.514633243603 	-2.12134034749e-22
0.694732364495 	-0.405330815339 	-6.12336751092e-22
0.883488442061 	-0.251227396612 	-6.4724036421e-23
0.948379245413 	-0.14508930255 	-6.62639505188e-22
0.998664443389 	-0.0861200977531 	4.90361646027e-22
1.03056263049 	-0.0484954605597 	1.22830209989e-23
1.04197954558 	-0.028716286211 	2.48969790485e-22
1.04744606986 	-0.016791861884 	-1.6110018428e-21
1.04665807783 	-0.0100385754137 	1.30295585221e-21
1.04494037796 	-0.00613678251742 	-2.70799131742e-22
1.04254171231 	-0.00405844685807 	-1.71378330747e-21
1.04014881086 	-0.00236631036763 	1.79512217358e-23
1.03792702306 	-0.00135691834194 	2.87496292754e-22
1.04030190194 	0.0041877923642 	1.15831171142e-21
1.04439432517 	0.00677548949003 	-6.34253139246e-22
1.04850147592 	0.00947699746371 	-4.17185023487e-22
1.05568727986 	0.0142345203267 	3.64373805026e-22
1.06570585339 	0.0200914020476 	2.3487188342e-22
1.07948437992 	0.0299400375484 	1.11120918009e-21
1.10030336348 	0.0400069556203 	1.51679827993e-22
1.12505827377 	0.0581372007002 	-1.52447430927e-22
1.19047367416 	0.0810036972278 	-1.52009572111e-22
1.24270925063 	0.121254008479 	2.56012717808e-22
1.14967272027 	0.137209983571 	-2.44297004785e-21
0.817399132702 	0.0125823529113 	-2.38271870294e-21
0.518293988489 	-0.199854314622 	-6.85697538608e-22
0.538894137213 	-0.266855671949 	-1.95598238354e-22
0.752078594961 	-0.125976706989 	-1.7218094378e-22
0.895086560161 	-0.0500186518379 	-1.60736774552e-22
0.965858720512 	-0.0276039784727 	-1.86857825752e-23
1.01357711134 	-0.0151652255571 	1.14215700907e-22
1.03336806886 	-0.0092109598286 	8.09188988267e-23
1.04185864793 	-0.0072103757821 	2.43703206923e-22
1.04427016213 	-0.00528039073752 	1.57275300756e-22
1.04310363744 	-0.00381188922595 	6.50321176431e-23
1.04078975753 	-0.00278615109396 	-1.46453421755e-22
1.0390715675 	-0.00230716481312 	-4.1645429106e-22
1.03700887431 	-0.00157931828849 	-2.26955148475e-22
1.03762094797 	0.00507843907228 	-3.20071570982e-21
1.04032155031 	0.00769933615073 	1.05020416686e-21
1.04444829811 	0.0116478274151 	-9.50256069338e-24
1.05023600651 	0.0171093069322 	8.08326264301e-23
1.05677821302 	0.0252070909846 	-6.11939865971e-22
1.06698460702 	0.0379433820356 	-4.02601001723e-22
1.07998987186 	0.0562526868725 	1.35626167482e-21
1.09457739391 	0.0853869403024 	3.33197361723e-23
1.13309059685 	0.129400117757 	7.23037226461e-23
1.17947593935 	0.215971056389 	-2.39932671465e-22
1.11846397778 	0.285727250608 	-1.89237156447e-21
0.916499071283 	0.28344354247 	1.6862772383e-23
0.675406205922 	0.181820997259 	-5.06967386396e-22
0.581178515557 	0.0734689248541 	-3.00322991991e-22
0.660031221718 	0.0491782247654 	6.00113857894e-23
0.859964263417 	0.0793641793655 	-2.12518660364e-23
0.978722472659 	0.0568902997715 	-1.41979704943e-23
1.02280412067 	0.024810181936 	2.22847299364e-24
1.04025869564 	0.0118915203568 	-4.65553743137e-22
1.04501736977 	0.00350514750108 	2.68316260542e-22
1.0449222723 	-0.000473364539403 	1.0214385899e-22
1.04335244822 	-0.00170787570207 	1.86464397371e-23
1.040932239 	-0.00201730484268 	2.61529481432e-23
1.03802201714 	-0.0018527835275 	1.75173874859e-22
1.03622515564 	-0.00164301296855 	9.27905814176e-23
1.03480025369 	0.00458259629997 	-6.89381184794e-22
1.0367583256 	0.00772314608988 	-7.31622923287e-22
1.03930010579 	0.0119301529024 	2.18059440943e-22
1.04233435062 	0.0179553578004 	-1.66685016361e-23
1.04571066993 	0.0260475771531 	2.03917865551e-22
1.04973664538 	0.0391137946991 	5.26799025479e-22
1.05422254388 	0.0590019969823 	4.20869780146e-23
1.05742839429 	0.0883204203702 	-6.04625065158e-22
1.06446110481 	0.138754625614 	5.27404917432e-22
1.07214750558 	0.223609066927 	3.63915604892e-22
1.03951378555 	0.32247380573 	-6.00389593308e-22
0.915163713931 	0.383926280649 	0
0.748351707538 	0.388303185792 	-8.30309837288e-37
0.668611748295 	0.346576853288 	-1.31631727439e-25
0.729691673704 	0.278771959734 	4.7472947243e-22
0.89467031457 	0.195485894086 	-4.06096577882e-22
1.02573213776 	0.117388763966 	-4.06650938759e-22
1.05788080877 	0.0591978859004 	6.45109051643e-22
1.05724349591 	0.0250686641341 	-4.13249993675e-23
1.05412547222 	0.0115046822933 	-3.31494045898e-22
1.05011201756 	0.00359351165111 	-2.83131504506e-24
1.04577456474 	-6.18988357181e-05 	6.6876998421e-23
1.04196627665 	-0.00145416134858 	4.21817647866e-23
1.03838761165 	-0.00165772616256 	-3.96643645924e-23
1.03568646294 	-0.0010002283191 	-3.71763027087e-23
1.03252162938 	0.00428954552914 	0
1.03368263263 	0.00702717055579 	0
1.03488025767 	0.010626987916 	0
1.03614031765 	0.0159092199208 	0
1.03637325954 	0.0232566895923 	0
1.03513814934 	0.0349786468525 	0
1.03269797791 	0.0535383606866 	0
1.02340418996 	0.0816324225011 	0
1.005817483 	0.12727827862 	0
0.984718520144 	0.200581699868 	0
0.951547034658 	0.300966111282 	0
0.858342405897 	0.390025994952 	0
0.740768700999 	0.423845212573 	0
0.705751777898 	0.401066405001 	0
0.799936876556 	0.329880356121 	0
0.98774630787 	0.215704335885 	0
1.10913270883 	0.114374373698 	0
1.11066524738 	0.0541770380104 	0
1.08443560824 	0.0230940154209 	0
1.06692709469 	0.00984426323978 	0
1.05627480177 	0.00184356009736 	0
1.04823793956 	-0.000878297249495 	0
1.04242946055 	-0.00206331690886 	0
1.03815836488 	-0.00206440649928 	0
1.03512927724 	-0.00142482941016 	0
1.03052049259 	0.00334526738032 	0
1.03114785225 	0.00528484242967 	0
1.03141940593 	0.00761322099432 	0
1.03103093954 	0.0109773654235 	0
1.02846701865 	0.0160654582375 	0
1.02241456469 	0.0237990276148 	0
1.01137853365 	0.0369921990072 	0
0.988932393578 	0.0595451269382 	0
0.95160492055 	0.0946212611824 	0
0.901011441167 	0.148269624957 	0
0.84691282247 	0.233599266154 	0
0.781400409656 	0.32088122101 	0
0.730564801007 	0.353264643214 	0
0.760427120047 	0.313584239084 	0
0.908150349309 	0.21057705182 	0
1.10253865767 	0.0951388271578 	0
1.18118822764 	0.0301417954832 	0
1.14444152469 	0.00851453380073 	0
1.09999736622 	0.00171155735423 	0
1.07473937095 	-0.00225538526866 	0
1.05958063754 	-0.00488330695456 	0
1.04903094931 	-0.00419188925935 	0
1.04238640554 	-0.00410959982643 	0
1.03753235155 	-0.00314826271164 	0
1.03433431103 	-0.00216818624209 	0
1.02904427658 	0.00206006041338 	0
1.0295233491 	0.002992161884 	0
1.02944094681 	0.00375941614876 	0
1.0281242729 	0.00441588180912 	0
1.02393187268 	0.00512561751465 	0
1.01495016515 	0.00548767197611 	0
0.99722090615 	0.0067272361593 	0
0.966053120251 	0.0109425302922 	0
0.916280683376 	0.0211815692421 	0
0.843714753736 	0.0434746321899 	0
0.777469642768 	0.0873944448739 	0
0.739857826553 	0.127770433233 	0
0.755127226427 	0.129765570055 	0
0.857073309029 	0.0747152751632 	0
1.02664665821 	-0.0189528261955 	0
1.17113520093 	-0.0727992950926 	0
1.19364570656 	-0.0638649552924 	0
1.13938720781 	-0.0408761423722 	0
1.09605503996 	-0.0253659840884 	0
1.07333587823 	-0.0177527763102 	0
1.05815627514 	-0.0132054498 	0
1.04746852829 	-0.00907312926808 	0
1.04119885198 	-0.00691971862013 	0
1.03623442525 	-0.00464088794616 	0
1.03317989896 	-0.00298936088489 	0
1.02840501639 	0.000751001927143 	0
1.02913765667 	0.000698017223168 	0
1.02953216483 	-0.000144869684155 	0
1.02905478514 	-0.00231466199555 	0
1.026212021 	-0.00679971545784 	0
1.01943790031 	-0.0153584117945 	0
1.00389565988 	-0.0299383377752 	0
0.973123044719 	-0.0534016319231 	0
0.916443675904 	-0.0778139150132 	0
0.831681216888 	-0.093403394664 	0
0.765035830223 	-0.0963387560816 	0
0.74628313317 	-0.108319708196 	0
0.795426298187 	-0.134641033123 	0
0.924453513143 	-0.169499671924 	0
1.06563133192 	-0.196037884833 	0
1.14929714073 	-0.171206094727 	0
1.15021906998 	-0.113687402264 	0
1.10889924765 	-0.0696028448691 	0
1.0794340005 	-0.0444311487775 	0
1.06394266977 	-0.0295290533691 	0
1.05208276635 	-0.0199369151753 	0
1.04342792341 	-0.0134171516907 	0
1.03828210968 	-0.00924440078645 	0
1.03399148019 	-0.00593435045514 	0
1.03142146794 	-0.00367066361454 	0
1.02862525784 	-8.94029692884e-05 	0
1.0301537049 	-0.000799853808669 	0
1.03205354803 	-0.00277454347636 	0
1.03435684034 	-0.0068164702824 	0
1.03630037763 	-0.0144432086363 	0
1.03764561827 	-0.0287177316439 	0
1.03497165796 	-0.0534887536462 	0
1.01394726002 	-0.0977132151021 	0
0.954681976468 	-0.152098238883 	0
0.860623548794 	-0.198092194923 	0
0.791077312376 	-0.231379355019 	0
0.775733495636 	-0.263288151178 	0
0.818045353497 	-0.290701315315 	0
0.924611741655 	-0.297342814524 	0
1.02822549371 	-0.267857053474 	0
1.08083655063 	-0.202391139597 	0
1.08703312767 	-0.131782016763 	0
1.06990472898 	-0.0823059531521 	0
1.05694409204 	-0.0537084253129 	0
1.04926832424 	-0.0351845147316 	0
1.04248476848 	-0.023029633097 	0
1.03720800523 	-0.0153344681235 	0
1.03380465591 	-0.0101938598859 	0
1.03086621227 	-0.00650683297557 	0
1.0290579556 	-0.0039751012685 	0
1.02922536754 	-0.000256955972278 	0
1.03187972698 	-0.00102236712311 	0
1.03575342807 	-0.00304109681182 	0
1.04127787527 	-0.00706879535152 	0
1.0489782281 	-0.0139873898361 	0
1.06013344476 	-0.0273929381221 	0
1.07508041078 	-0.0497230096055 	0
1.07334696808 	-0.0930945224659 	0
1.01743034547 	-0.162252306468 	0
0.910747965429 	-0.231876722212 	0
0.829098058604 	-0.283452456382 	0
0.805713958278 	-0.319099918172 	0
0.827810496182 	-0.34058099114 	0
0.895959455767 	-0.333035043791 	0
0.961950958944 	-0.278021721081 	0
1.00303049014 	-0.201007800516 	0
1.0245808653 	-0.133980390812 	0
1.02893802951 	-0.0853247338467 	0
1.03122767524 	-0.0547434856499 	0
1.03214206677 	-0.0344466484302 	0
1.03135718114 	-0.0217124862062 	0
1.03014235157 	-0.0139889073855 	0
1.02893580001 	-0.00907764179306 	0
1.02757233581 	-0.00579728123541 	0
1.0265967962 	-0.00353546724386 	0
1.02966166969 	0.000112786793312 	0
1.03312654375 	-0.000191400847114 	0
1.0383799413 	-0.00109455440154 	0
1.04584132723 	-0.00321544715584 	0
1.05737869535 	-0.00633241144257 	0
1.07483987186 	-0.0132044373799 	0
1.1021285695 	-0.0231809470282 	0
1.12606659217 	-0.0437819452442 	0
1.09455943369 	-0.0958474527184 	0
0.984148741089 	-0.17619491062 	0
0.876789593372 	-0.253153417823 	0
0.83021630458 	-0.299120463602 	0
0.828113046326 	-0.316104492116 	0
0.855850396871 	-0.293951029004 	0
0.890022993916 	-0.231566635799 	0
0.931040131587 	-0.163850485021 	0
0.969310626154 	-0.108122141752 	0
0.990348017841 	-0.0682721536399 	0
1.00547485654 	-0.0422207870968 	0
1.0157702387 	-0.0250573792416 	0
1.02143376576 	-0.0151926028439 	0
1.02422456198 	-0.00942098814 	0
1.02516065741 	-0.00599391199532 	0
1.0250899769 	-0.00378735719241 	0
1.02473313137 	-0.00230225911781 	0
1.02954119277 	0.000914411357613 	0
1.03310382758 	0.00138285281589 	0
1.03868306987 	0.0021640001616 	0
1.04643024328 	0.00277380465342 	0
1.0589097222 	0.0042261429756 	0
1.07731464585 	0.00546490960571 	0
1.10609590234 	0.0092092923234 	0
1.14503737213 	0.0159928137772 	0
1.14896907149 	0.0089412320883 	0
1.07044783469 	-0.0353709207635 	0
0.954424287872 	-0.10963838519 	0
0.868993474142 	-0.164315461519 	0
0.824752984438 	-0.18003379981 	0
0.81471176249 	-0.1584489323 	0
0.832138455946 	-0.115936741396 	0
0.877564371238 	-0.0760582358789 	0
0.929132197105 	-0.041775152358 	0
0.963841137085 	-0.0212022924135 	0
0.988300573058 	-0.0110331417674 	0
1.00569953099 	-0.00556109584941 	0
1.01603728702 	-0.00347271058512 	0
1.02126596341 	-0.00233980957517 	0
1.02338925415 	-0.0017208225802 	0
1.02395344637 	-0.0011821094457 	0
1.02385500954 	-0.000774249930242 	0
1.02864712956 	0.00200759538471 	0
1.03179517949 	0.00335125775738 	0
1.03688580487 	0.00561545516189 	0
1.04377028062 	0.00863078850435 	0
1.05483935446 	0.0137438148436 	0
1.07030465159 	0.0214040660939 	0
1.0925754215 	0.0345083232483 	0
1.12646907841 	0.0583411154357 	0
1.14599171812 	0.0889869285467 	0
1.10747733865 	0.10138122128 	0
1.01401834297 	0.0790526840425 	0
0.908947321338 	0.0500643770277 	0
0.830605882978 	0.0376481726224 	0
0.798999614836 	0.0358494493621 	0
0.810179728044 	0.0378363704516 	0
0.855382340784 	0.042992366584 	0
0.914191658473 	0.048407781074 	0
0.959755617004 	0.0434897821893 	0
0.989713905862 	0.0304728289803 	0
1.00851008134 	0.0185691731179 	0
1.01841143938 	0.0103682572051 	0
1.0227411302 	0.00554537640302 	0
1.02415437395 	0.00274705946036 	0
1.02431666038 	0.0012842414879 	0
1.02397469444 	0.000550233600986 	0
1.02713826572 	0.00282934552031 	0
1.0296131952 	0.0047833889885 	0
1.03357961318 	0.00794772631654 	0
1.0386957385 	0.0125924263826 	0
1.04666592507 	0.020194681524 	0
1.0571955352 	0.032200788613 	0
1.07001560618 	0.0509783801418 	0
1.08885764771 	0.0822414788261 	0
1.10453034055 	0.128233593113 	0
1.08197164756 	0.172929990948 	0
1.00987165522 	0.199955667704 	0
0.916176808256 	0.210057005326 	0
0.841964316777 	0.205467595893 	0
0.813616615654 	0.188124949498 	0
0.82287922684 	0.165777229344 	0
0.864851083599 	0.145760081842 	0
0.92791183847 	0.125407984481 	0
0.981481268374 	0.0960477353738 	0
1.01271632759 	0.0618504100554 	0
1.02571294642 	0.0359046435987 	0
1.02888626276 	0.0203705932087 	0
1.02874225957 	0.0113653963422 	0
1.02747251573 	0.00612198169616 	0
1.02610303063 	0.00314070977307 	0
1.02490903172 	0.00154110617572 	0
1.02529584119 	0.00282585654488 	0
1.02686745548 	0.00487907417117 	0
1.02917533612 	0.00826854975198 	0
1.03172619532 	0.0135474618138 	0
1.0353060915 	0.0223546977119 	0
1.03950932879 	0.0367096038388 	0
1.0425091747 	0.0590246639229 	0
1.04656925019 	0.0921924878861 	0
1.05138916185 	0.139682307005 	0
1.02958452752 	0.19670325906 	0
0.971560797534 	0.246489460023 	0
0.901595320582 	0.275121434731 	0
0.851449689975 	0.276366776918 	0
0.838247471695 	0.259149865409 	0
0.851629150098 	0.232419084723 	0
0.895557025904 	0.199249626296 	0
0.963908232065 	0.160609200713 	0
1.02314798004 	0.111817841404 	0
1.0501328791 	0.0667458458344 	0
1.05037715129 	0.0383850431854 	0
1.04323258877 	0.0221029397697 	0
1.03703234569 	0.012760125686 	0
1.03226738118 	0.00716104615414 	0
1.02881743905 	0.00387116786443 	0
1.02640659464 	0.00200388193359 	0
1.02351357826 	0.00198613456973 	0
1.02412883133 	0.0035554510277 	0
1.02468063709 	0.00628593051184 	0
1.02441262224 	0.0106722271096 	0
1.02309160742 	0.0183363689122 	0
1.0200975576 	0.031325341361 	0
1.01400952785 	0.0525791797011 	0
1.00671194173 	0.0818814499416 	0
0.998360813455 	0.12373482117 	0
0.969158874021 	0.179582143173 	0
0.924269980044 	0.235530005036 	0
0.882566412658 	0.273619914925 	0
0.856649508647 	0.281016159791 	0
0.858153959936 	0.268039241736 	0
0.881679858458 	0.240607307278 	0
0.936590774125 	0.196880394721 	0
1.01660875399 	0.14096115619 	0
1.07536240872 	0.0831693999531 	0
1.08662699783 	0.0454089421179 	0
1.07126668353 	0.0267616159454 	0
1.05526431681 	0.0156705598595 	0
1.04414425811 	0.00942637801727 	0
1.0366038917 	0.0054484296976 	0
1.03142608774 	0.00309884932315 	0
1.02798750185 	0.00166567132533 	0
1.02244971472 	0.000681113070727 	0
1.02246257681 	0.00123098044359 	0
1.02186418893 	0.0023228384193 	0
1.01957983407 	0.00402671642463 	0
1.01446154352 	0.00733895618116 	0
1.00517372295 	0.0135473812662 	0
0.991659467305 	0.0258319520557 	0
0.975435589762 	0.0439825748158 	0
0.953479375434 	0.0733808280882 	0
0.914315011311 	0.115597459762 	0
0.875760885676 	0.160521626413 	0
0.855907215602 	0.199421627913 	0
0.854677598498 	0.215897238926 	0
0.877808757776 	0.20915271154 	0
0.923541209937 	0.176678805848 	0
0.996119926479 	0.120336036226 	0
1.07799932143 	0.0634519008568 	0
1.11787168214 	0.0252181256376 	0