1.01417984474 	-0.00800787069135 	-1.77330491362e-21
1.01550121533 	-0.0125568009534 	-1.34965875218e-21
1.01708214602 	-0.0176894763049 	5.00591048484e-22
1.01893237467 	-0.0238159681116 	-6.98612013601e-24
1.02066223776 	-0.0310664318196 	-5.45208774706e-22
1.02174030078 	-0.0398475694278 	-2.79020299893e-22
1.02112225472 	-0.0499903479601 	-3.16719820479e-22
1.01678327748 	-0.0601259705653 	-1.58239698125e-21
1.00705191688 	-0.0722074556235 	2.24463704984e-20
0.987376917233 	-0.0784264620395 	1.66811299215e-21
0.959113285825 	-0.073126953369 	4.6377593283e-23
0.929821932762 	-0.0478615771087 	2.03170321746e-21
0.916408107236 	-0.00401974656683 	-3.43929600624e-24
0.930238708021 	0.0396506085147 	2.35868895612e-22
0.959278567377 	0.0645376044821 	-1.47509127964e-21
0.986723965147 	0.070113621131 	1.70692554026e-21
1.00545205413 	0.0647741228271 	1.65442225871e-20
1.0148347041 	0.0541644154342 	-1.28092358298e-21
1.0190060809 	0.0455337300498 	-1.24719675583e-21
1.01985286611 	0.0368101099307 	2.59249873174e-22
1.01909142262 	0.0291275573612 	5.63036256966e-22
1.017734513 	0.0226357702741 	-8.66239138336e-27
1.01625125191 	0.0170538535643 	-3.01362026671e-22
1.01496032019 	0.0122337219259 	6.63180803946e-22
1.01387896668 	0.00783670978889 	6.65715176033e-22
1.01864308968 	-0.00840276351397 	6.16833427794e-22
1.02051449805 	-0.0131743958015 	1.2324080587e-21
1.02300516176 	-0.0188258020141 	7.67807654182e-22
1.02601142872 	-0.0256065771301 	-1.61732507686e-22
1.02932238559 	-0.0339445597712 	8.12459474884e-22
1.03226718512 	-0.0445339114947 	-3.52567849977e-22
1.03366516623 	-0.0577740414784 	6.23365858913e-22
1.03150148133 	-0.074582576184 	2.07755681845e-22
1.02128418059 	-0.0946930120294 	-6.73561726517e-22
0.996551321653 	-0.114003909629 	-2.86489753257e-21
0.948572007668 	-0.122469024759 	-4.00330388119e-21
0.881505789245 	-0.0914492770376 	1.02643337301e-20
0.844865016293 	-0.00378780019958 	1.67071889599e-22
0.883009493285 	0.0826423849525 	9.45218378795e-21
0.949153679708 	0.112030476449 	-7.78338092447e-21
0.995223010395 	0.103557450688 	-1.84481419064e-21
1.01832921375 	0.0856411143165 	-4.04141059216e-22
1.02762351065 	0.0676971727363 	-2.41644221131e-22
1.02986089 	0.0531262472628 	-4.64437758216e-22
1.02894661337 	0.0416337084041 	2.42361115812e-22
1.0267272671 	0.0323461447184 	-5.83554180528e-22
1.02416658134 	0.0248152108794 	9.87104536925e-23
1.02178346562 	0.0185435926007 	-3.23140410684e-22
1.01978011349 	0.0131275901418 	-5.56531337716e-22
1.01825428763 	0.00842967419174 	-9.81414930484e-23
1.02314781701 	-0.00838258801468 	1.25462854426e-23
1.02574223991 	-0.0129926299198 	5.51585530721e-22
1.02925748175 	-0.0187802533361 	-5.05755465955e-22
1.03369978674 	-0.025765397191 	-2.51930282308e-24
1.03910350376 	-0.0345838723913 	2.34005346689e-22
1.04501221546 	-0.0463068299252 	2.00048166001e-22
1.0504418722 	-0.0621372534697 	-4.40402640607e-22
1.05334296127 	-0.084078309938 	-1.17911618433e-21
1.04936226896 	-0.114527681931 	-1.10376817509e-22
1.02851700665 	-0.157144336751 	1.06308996218e-21
0.964129340251 	-0.20679482437 	1.55675197802e-20
0.807335786227 	-0.211094166311 	-2.06869743628e-21
0.667664982679 	-0.000785414119642 	-2.65405163162e-21
0.813415308039 	0.203773118827 	-3.63563487396e-21
0.966450090752 	0.19427508386 	9.89569831136e-21
1.02578999818 	0.144073614761 	-4.89384157096e-22
1.04372519167 	0.104257890494 	-1.11114878784e-24
1.0467300592 	0.0772214612468 	3.15849909986e-22
1.04433273759 	0.0582358127833 	4.63312744758e-23
1.04009765823 	0.0445374108942 	6.67876514926e-26
1.03551394496 	0.03409238955 	-9.17803180705e-23
1.03130307289 	0.0258975251076 	-2.13189858257e-25
1.02777500388 	0.0192132535473 	1.36702931232e-22
1.02494625855 	0.0134801576009 	-1.87415271882e-22
1.02283526104 	0.00868502571181 	-2.1545200442e-22
1.027552415 	-0.00778666299707 	5.00860082663e-23
1.0308202149 	-0.0120927734541 	-1.12353032118e-23
1.03535443747 	-0.0174304504581 	8.78359063313e-23
1.04141976079 	-0.0239702471408 	-4.8919090385e-23
1.04915703639 	-0.0323325976588 	-7.02046237059e-23
1.05869189357 	-0.0439316578059 	-5.73440811163e-23
1.06974321373 	-0.0604087141908 	-3.66415142159e-23
1.08150065821 	-0.0847393484703 	-3.07486167446e-22
1.09188586809 	-0.122328432072 	1.93445198035e-22
1.09521604914 	-0.185109511828 	-6.21182809464e-22
1.07264138098 	-0.306032842008 	2.51416175845e-22
0.857017598576 	-0.588915173267 	-1.77404209208e-21
0.878940537544 	0.578301474081 	5.31900810824e-22
1.07782328173 	0.286336682047 	-1.7255933523e-21
1.08960750057 	0.16771860401 	-1.85061459295e-21
1.08148662947 	0.111073094376 	-5.31508662722e-22
1.07086437604 	0.0793266782022 	7.70251473762e-22
1.06090678001 	0.0588422372368 	3.45399390673e-22
1.05219991428 	0.0445442771308 	-4.46944859059e-23
1.04483479257 	0.0338447725586 	-8.16601521721e-23
1.03876035667 	0.0256247790889 	-6.03971266432e-23
1.03391934318 	0.0189322814998 	-2.95311907135e-23
1.03021456452 	0.0132857388229 	-2.57348865225e-23
1.0275055288 	0.00852934041772 	2.31996522341e-24
1.03155522385 	-0.00660407676456 	-2.52102084614e-23
1.03535760166 	-0.010477187515 	1.71747072461e-23
1.04076453502 	-0.0148391223327 	9.398407548e-24
1.04831144533 	-0.0202299428807 	3.85567997276e-25
1.0582582684 	-0.0271587795624 	-4.10347212943e-23
1.07147607364 	-0.0368270219763 	-3.50738272178e-24
1.08863142462 	-0.0509455382532 	-5.37329467198e-24
1.1105786506 	-0.0725917148347 	2.69894928536e-23
1.13899421517 	-0.107409735673 	-4.63741166991e-22
1.17827599574 	-0.165393316758 	-2.0994343424e-22
1.25363369367 	-0.265412183245 	1.94853846399e-22
0.044259479491 	0.00139014846991 	-2.0716489216e-21
1.25820803264 	0.228782557529 	-2.60473666711e-22
1.16338306993 	0.140953910403 	3.59228499887e-22
1.11976291786 	0.0969348511938 	9.78353144954e-22
1.09426309391 	0.071250206361 	-2.90612200584e-22
1.07692363955 	0.0539279005399 	-3.43619198402e-24
1.06397844656 	0.0412655073589 	7.20984506299e-24
1.05388149938 	0.0315221247443 	8.64795677452e-23
1.0460178368 	0.0238764603052 	-2.67027810866e-25
1.03987398188 	0.0176384522295 	5.24064143681e-23
1.03531376984 	0.0124597240745 	4.93077302031e-23
1.03203727447 	0.00782087863431 	-1.84656645455e-23
1.03467668084 	-0.00542241105967 	6.96164320742e-25
1.0388723698 	-0.00810470235156 	-3.8942358537e-24
1.04495467072 	-0.0112880721 	-1.44491674006e-23
1.05347120205 	-0.0149015832014 	9.98866381856e-24
1.06497256354 	-0.0193740058158 	1.07404338673e-22
1.08100458019 	-0.0253918930917 	1.98442504518e-22
1.1029387087 	-0.0341348541841 	-1.17641091584e-21
1.13333583968 	-0.0479086019478 	4.6343410934e-22
1.17585748163 	-0.0704300340457 	1.59797952067e-21
1.23648133801 	-0.106312939016 	-9.82298151562e-21
1.30655530685 	-0.145205904068 	2.57152360475e-20
0.0778649388603 	-0.0360988005109 	1.26605740259e-21
-0.000567402586197 	0.00180947998027 	-4.20773417358e-22
0.194302131645 	0.0172386430229 	-5.99543188447e-23
1.29705883416 	0.0731539536196 	-3.57920173215e-20
1.1965229226 	0.0757513643018 	1.06377859258e-20
1.14173762149 	0.0669151839334 	9.64838594646e-22
1.11051297762 	0.0556030146385 	3.3723668801e-22
1.08942956035 	0.0446769332796 	1.41293945519e-21
1.07394924525 	0.0351692247992 	-2.45624728234e-22
1.06182702808 	0.0272102469611 	-2.15995013103e-22
1.05251129283 	0.0206922303202 	-9.84406324414e-24
1.04525340949 	0.0153644079871 	-3.3009643483e-23
1.03985005277 	0.0107801729568 	-7.48495186437e-23
1.03601631896 	0.00697036490326 	-1.51161436376e-22
1.03704385958 	-0.00381844803985 	-4.36367863059e-24
1.04121525606 	-0.00542277116805 	-2.08989195703e-22
1.04754902663 	-0.00726399224241 	2.81168503589e-22
1.05632869429 	-0.00882210272544 	-2.59772434875e-24
1.06841648327 	-0.0102717224837 	-3.2502907741e-22
1.08534144132 	-0.0115431304033 	-3.55704246896e-22
1.10921808013 	-0.0128463291652 	1.05810842302e-21
1.14376634782 	-0.0148780866167 	3.9113860311e-21
1.19401000992 	-0.0195631095512 	9.59949273109e-22
1.26854847718 	-0.0336883888114 	3.80090517662e-21
1.30676068374 	-0.0544357306626 	2.65607968061e-21
0.289805536195 	-0.167882816659 	-3.62353865292e-21
-0.191207665923 	-0.252411567046 	-3.16346844734e-21
0.326389842251 	-0.169890656405 	-7.34316618508e-21
1.21727893734 	-0.0522098583835 	-2.87248855421e-21
1.17926526484 	0.0186015491701 	-2.97250889829e-21
1.14286412581 	0.0384062190578 	-1.16723433623e-22
1.11755142174 	0.039102995497 	-4.09039995939e-21
1.09765162185 	0.0338915840794 	-1.27639233593e-21
1.08136747406 	0.0274602923456 	3.3150000769e-22
1.0682584085 	0.021478810821 	4.18126701766e-22
1.05786678415 	0.0163556375987 	4.73224372079e-24
1.0497265339 	0.0122312715021 	-5.52460710445e-22
1.04362780228 	0.0084967816771 	4.88128395204e-22
1.03944909623 	0.0055655724993 	4.31952262994e-22
1.03856190309 	-0.00223411010559 	-1.71305328937e-22
1.04248559603 	-0.00289859182533 	-5.2216044801e-22
1.04846556861 	-0.00338972971868 	-3.64491461352e-22
1.05670909081 	-0.00303206304128 	6.60682457556e-23
1.06794651401 	-0.00147656479606 	-6.83830638093e-22
1.08368327943 	0.00209405900351 	5.01670658363e-22
1.10577688104 	0.0087269711106 	-1.27448572711e-21
1.13749231526 	0.0204972116539 	-9.56696690817e-23
1.19123103373 	0.0377057702342 	-3.14780026477e-21
1.26834532062 	0.0606115746069 	-3.88499899004e-21
1.31528094933 	0.0792041709702 	8.85446819382e-21
0.573932025437 	-0.104341281122 	1.31343043526e-20
-0.150038880822 	-0.32769397544 	6.22194796066e-22
0.18161163865 	-0.299040272453 	7.12745973996e-21
1.05972805675 	-0.0856040454356 	-1.37489069379e-21
1.13618492171 	0.00593211130246 	-1.86578681665e-21
1.13484249314 	0.0241289550463 	-1.38633070723e-21
1.11960412961 	0.0270122948057 	2.70258776815e-22
1.10281024839 	0.0235052643001 	1.67107038617e-21
1.08702796625 	0.018918222166 	-6.1656915867e-22
1.07284140702 	0.0147700046202 	9.60003607734e-22
1.06182284822 	0.0111811081996 	-1.12989377827e-22
1.05304330487 	0.00843539608228 	6.73771512045e-22
1.04652536959 	0.00585956480744 	8.62776292815e-22
1.0420573242 	0.0038972652298 	-1.48464604965e-23
1.03916127922 	-0.000986501422247 	5.14125115566e-22
1.04282885718 	-0.000900333355615 	4.8817988609e-22
1.04793493817 	-0.000280860492374 	-2.46045099435e-22
1.05497347492 	0.00151135548772 	-9.80314813253e-23
1.06415177288 	0.00540921229819 	3.27460703038e-22
1.07655954898 	0.0124991615273 	1.52564590284e-22
1.09373604567 	0.026403587005 	-2.33832370925e-22
1.11531838061 	0.0465619099958 	8.03374960747e-22
1.15252655741 	0.0860552137493 	2.94489494021e-20
1.21339912526 	0.152268996682 	3.01459758711e-21
1.26605630788 	0.258199395604 	1.23823825518e-21
0.820048552388 	0.252683240338 	6.21918175691e-21
0.05599747857 	0.0577278391514 	-3.65203370904e-22
0.0691671898066 	-0.0947187116586 	1.48232055691e-21
0.916920960565 	-0.00185237981518 	-1.92875798774e-22
1.11991131006 	0.0382199221777 	7.15739499157e-22
1.13479491325 	0.0268724907902 	1.66269510112e-20
1.12314280607 	0.0192609301082 	3.5582296479e-22
1.10782312013 	0.012608229364 	2.54034082884e-21
1.09035176398 	0.00961335151131 	-3.10815630385e-22
1.07576831183 	0.00717326113084 	-7.98089024706e-22
1.06421735461 	0.00535180279569 	1.57236806761e-22
1.05501365288 	0.00420442743742 	3.54784717812e-22
1.04835224141 	0.00304465530134 	-7.76181022238e-22
1.0436395304 	0.00203438324709 	-6.63770789817e-22
1.03917307442 	-1.76031675051e-05 	-6.86356961066e-22
1.04235728388 	0.000510070710247 	-2.9403416415e-22
1.04646537196 	0.00165011331 	-4.38868346504e-23
1.05194477539 	0.00409066047727 	-2.47243161702e-22
1.05859096142 	0.00905253856965 	2.90319460186e-22
1.06658319486 	0.0179574665969 	-9.0137274569e-22
1.07292681876 	0.0319984459687 	-7.86733569861e-22
1.08273685973 	0.0599171428985 	-1.11980484785e-21
1.09362849887 	0.107567764581 	3.36574666068e-21
1.10231809352 	0.193018011009 	4.86342131794e-22
1.11994227534 	0.346317893065 	-5.96507636037e-21
0.835703088436 	0.46782769132 	-4.57958848951e-21
0.254348977384 	0.440485831692 	-9.11762393032e-22
0.195830865355 	0.275650851438 	-1.55631621687e-22
0.881266837876 	0.115054803282 	-3.7343308134e-22
1.1613599335 	0.0743963064898 	2.10777744329e-22
1.15716982999 	0.022027384538 	1.81514905866e-21
1.13364577243 	0.00694569237825 	-6.02935220905e-22
1.11046937459 	0.00130028025891 	1.1168207112e-21
1.09168234953 	-0.00292715524576 	9.54578806986e-22
1.07720188488 	-0.0012896080821 	-1.59108427869e-21
1.06483984947 	-0.000915372307637 	3.33888616133e-22
1.05545235774 	-0.000266067558494 	1.13067968568e-22
1.04887990061 	-0.000104566791977 	8.45188932908e-22
1.04422107026 	-7.85000261001e-06 	3.83226307401e-22
1.03879719189 	0.000517011249438 	8.10502617195e-22
1.04148056507 	0.00125138780789 	-1.71664344895e-21
1.04477255537 	0.00227790276128 	1.05252137159e-21
1.04884379988 	0.00456161490719 	5.3763750144e-24
1.05217773308 	0.00851392705769 	1.58847358882e-21
1.05440831404 	0.0150020841556 	-3.83492623657e-22
1.05504054627 	0.0280236340967 	-1.31961299655e-21
1.04892881903 	0.0503272486088 	6.39135646377e-23
1.03190172454 	0.0925287185678 	7.2752500385e-22
0.99424437245 	0.166404698689 	5.43003027786e-22
0.949956354278 	0.301382198536 	-3.10822701166e-21
0.732426001614 	0.450449252031 	4.3939353373e-23
0.319033852769 	0.552143427015 	-3.63243670503e-22
0.406526149918 	0.428097765137 	1.07539016778e-22
1.05039743948 	0.101486408544 	-5.42519848058e-21
1.2294517491 	0.0324749822725 	3.68986180554e-22
1.18962600964 	-0.0109447524438 	9.17792046011e-22
1.14026840636 	-0.0159164708912 	1.26158750681e-22
1.11167123656 	-0.0170654560923 	-2.287585265e-21
1.09020935572 	-0.012457844884 	-7.66196927854e-22
1.07488208336 	-0.00994130815578 	2.01513564757e-21
1.06297332442 	-0.00786489413811 	-1.41894178883e-24
1.0542179592 	-0.00464635363536 	-1.93288716084e-21
1.04807893862 	-0.00337106804817 	3.25458935302e-21
1.04362807457 	-0.00169740144309 	-1.06135856536e-22
1.038321669 	0.000823802975562 	-5.85884372364e-22
1.04073988275 	0.00146958563101 	-2.29050431292e-23
1.04344629773 	0.00252509435725 	1.80578619261e-21
1.04595577982 	0.0031104247354 	-8.69030160555e-22
1.04816219678 	0.00478924479253 	1.28808045131e-21
1.04822993242 	0.00816314757907 	-1.35509312725e-21
1.04187633434 	0.0137548489174 	1.43879270652e-22
1.02684580951 	0.0239175563284 	-5.44614738119e-24
0.984722875309 	0.0472935152998 	-2.15797754367e-22
0.919365858618 	0.0809964112431 	2.40298408787e-22
0.808909632361 	0.163379940253 	-3.04840884618e-22
0.526196870079 	0.357486081092 	-9.59957380417e-23
0.396755359155 	0.349966910549 	-2.28777145318e-22
0.721649532371 	0.120178255587 	-3.32720453831e-21
1.15271575259 	-0.0762436670842 	2.01408338155e-22
1.25895786646 	-0.086185169076 	-3.69075112414e-21
1.19602137555 	-0.0672158104053 	2.90147025371e-21
1.13309687166 	-0.0491673286026 	2.373901888e-23
1.10620972264 	-0.0364196755623 	4.70733744871e-22
1.08344266468 	-0.0254715414665 	-3.05187022022e-21
1.06970625358 	-0.0178234742984 	2.51260951529e-21
1.05872483553 	-0.0120622412825 	-4.40382061847e-22
1.05074797953 	-0.00902742391065 	-3.89571807078e-21
1.04625735988 	-0.00613846648101 	-9.39662026814e-23
1.0421384019 	-0.00323091227829 	7.6192079128e-22
1.03763037092 	0.00134380465832 	4.26760172018e-22
1.04015751075 	0.00156263702643 	-2.23438675312e-22
1.04254543765 	0.0015503671512 	-1.37835038646e-22
1.04605085322 	0.00151782428391 	1.54316475618e-22
1.04831180309 	0.00108570680177 	1.64660576612e-22
1.04786947577 	-0.00065262148933 	2.41796345625e-22
1.04202337813 	-0.00539290535465 	7.96931558959e-23
1.02392247517 	-0.0106213373163 	1.51353345086e-22
0.978198542348 	-0.0221921736253 	3.10648623297e-23
0.889691728547 	-0.033434972189 	-1.70309661025e-22
0.672041768924 	0.0370746566067 	4.63531309173e-22
0.501344155018 	0.0630416681431 	3.83158638998e-22
0.591480464676 	-0.0824544954842 	-5.99023186558e-22
0.919668409161 	-0.255956102977 	2.27593990209e-21
1.15746662309 	-0.263211494754 	2.53511527759e-21
1.20731066958 	-0.191671110274 	2.25617762021e-22
1.15116466791 	-0.117114493363 	-1.16838850637e-22
1.10747085476 	-0.0773466895917 	-1.22817845499e-22
1.08918761365 	-0.0522912769866 	1.25315487088e-22
1.07250419719 	-0.035468966007 	9.79624116964e-22
1.06163100469 	-0.0239084983672 	3.34804096973e-22
1.05284354452 	-0.0160935815813 	2.51463029347e-22
1.04692908373 	-0.0106583127226 	-4.71880094587e-22
1.04328761992 	-0.00738946133603 	-1.23129656593e-21
1.03969132288 	-0.00444480947606 	-8.14540079664e-22
1.03704647951 	0.00166612583939 	-9.73619637475e-22
1.03927871045 	0.00161313757475 	3.13654011112e-22
1.04315378179 	0.0018523171794 	1.35932488012e-23
1.04706470752 	0.000855897151813 	2.6556901184e-23
1.05113578047 	-0.00104602331257 	3.64253610318e-23
1.05577536564 	-0.00733693012508 	3.15673893558e-22
1.05721484916 	-0.0187851615262 	-3.71868515723e-22
1.05556750698 	-0.0419693629432 	1.15724957455e-23
1.0292800417 	-0.102902873021 	-4.2419469179e-23
0.894111461009 	-0.146879263219 	8.55023946047e-24
0.664190587228 	-0.207429898826 	4.02756062066e-22
0.599713568705 	-0.275515388999 	1.6292714711e-24
0.710687780395 	-0.351232185472 	-4.3541538811e-22
0.925528239367 	-0.382684411268 	1.05995974394e-21
1.07688862569 	-0.332803186871 	4.28355829698e-22
1.10665516464 	-0.229185079876 	-2.92141865516e-24
1.07859043796 	-0.142201425437 	3.37099480477e-23
1.07112148932 	-0.0914481647873 	4.35835561141e-23
1.06418061358 	-0.0604974840506 	1.13598947737e-21
1.05708366888 	-0.0394060120197 	-3.45867876813e-22
1.05146534619 	-0.0261898299943 	-5.0103574778e-22
1.04672510113 	-0.0176251520087 	6.53922217612e-23
1.04245754833 	-0.0117819136726 	-1.69609348261e-24
1.03903222297 	-0.00776914202665 	1.00978962036e-21
1.03683997731 	-0.00500084294393 	1.90761780528e-22
1.03634093002 	0.00126998177662 	-1.56466102966e-22
1.03953797759 	0.00222975368727 	-1.73511337771e-22
1.04409533291 	0.00221853374977 	6.39833583267e-23
1.04971662815 	0.00116154614615 	4.98849212019e-23
1.05729889113 	-0.00118586267349 	4.98576982536e-23
1.06629876056 	-0.00870300994891 	-1.62829068785e-22
1.08068349772 	-0.0210416064773 	-2.6083414489e-23
1.10417005704 	-0.0535706091869 	4.05289404125e-22
1.10197651837 	-0.113151845685 	-2.15211811708e-22
0.974907439282 	-0.217182922299 	-2.52696405023e-22
0.772309053488 	-0.343445443361 	2.5497262356e-22
0.671820328703 	-0.422694760363 	0
0.726306084712 	-0.443120769604 	-1.28852772553e-35
0.871497343542 	-0.402189389566 	-2.04274504224e-24
0.974104977134 	-0.310070717464 	-3.51388333393e-22
1.00404303138 	-0.205977271657 	2.09885215445e-22
1.01862568358 	-0.128621657851 	3.0789418154e-22
1.03220656746 	-0.0829080610196 	-3.89381811233e-22
1.03895605782 	-0.0547143461072 	2.98220886249e-23
1.03988152713 	-0.0358841236672 	3.97494878665e-22
1.04011258113 	-0.0239969081701 	1.71687524511e-22
1.03905466962 	-0.0164291461585 	-4.29419988622e-24
1.03721830439 	-0.010894461697 	1.8590120123e-22
1.03564729646 	-0.00708200460938 	-6.26165582487e-22
1.03412265054 	-0.00419652484074 	-5.89063782645e-22
1.03555523754 	0.00210605405688 	0
1.03888356129 	0.00332132747647 	0
1.04373354315 	0.00417845352309 	0
1.05042074974 	0.00409925019397 	0
1.06063922479 	0.00459597787582 	0
1.07491922375 	0.000519073659585 	0
1.09887356433 	-0.00510768652594 	0
1.14170199846 	-0.0182610499355 	0
1.17869820418 	-0.0496019510241 	0
1.09521456553 	-0.12522411266 	0
0.880439736618 	-0.256998657155 	0
0.720177096716 	-0.366897114373 	0
0.70502841859 	-0.401032300715 	0
0.786124301877 	-0.357178510317 	0
0.871095231956 	-0.257266579339 	0
0.923203699685 	-0.1640380955 	0
0.967085239727 	-0.104386914488 	0
1.000878846 	-0.0661778790235 	0
1.01958786102 	-0.0420521994584 	0
1.027637895 	-0.0273314362533 	0
1.03225531159 	-0.0184584718165 	0
1.03390701167 	-0.0126125148328 	0
1.03367559124 	-0.00861208301726 	0
1.03308753324 	-0.00583748614622 	0
1.03222126776 	-0.00358461213577 	0
1.03424343395 	0.0030697634678 	0
1.03740585997 	0.0047814389762 	0
1.0423589778 	0.00694203988915 	0
1.04875785034 	0.00876066678174 	0
1.05955777929 	0.0127142313468 	0
1.07473633073 	0.0157069181054 	0
1.09809588654 	0.0212613508189 	0
1.14329592772 	0.0329206950275 	0
1.20099378363 	0.0478347935082 	0
1.17563116177 	0.0457349001753 	0
1.01103462703 	-0.0252372689341 	0
0.821644045478 	-0.136846808532 	0
0.723798031562 	-0.199391441303 	0
0.727364417916 	-0.192631959611 	0
0.781948843917 	-0.13474041126 	0
0.854752736008 	-0.0749268858477 	0
0.925780343177 	-0.044129076409 	0
0.974401257421 	-0.0269247075621 	0
1.00389425761 	-0.0166021219583 	0
1.0193845344 	-0.0116291654111 	0
1.02720587758 	-0.00887064077881 	0
1.03063461103 	-0.00663948637814 	0
1.03149700815 	-0.0051015599464 	0
1.03132114282 	-0.00381940038132 	0
1.03068677505 	-0.00251806936526 	0
1.03250843043 	0.00380666292024 	0
1.03520126401 	0.00607438690391 	0
1.03963497428 	0.0093088568854 	0
1.04496172399 	0.0132175396513 	0
1.05410699102 	0.0196008089772 	0
1.06658135869 	0.0284651849539 	0
1.08329463909 	0.0424431737954 	0
1.11614525827 	0.066472135889 	0
1.16359989766 	0.108280794409 	0
1.16560338441 	0.162675303131 	0
1.0717573503 	0.178224501822 	0
0.911778735069 	0.132446850636 	0
0.773679640428 	0.081870368741 	0
0.728189768368 	0.0535042616954 	0
0.754933579704 	0.0519381792458 	0
0.82967392252 	0.0603369209572 	0
0.916666567994 	0.0515681919882 	0
0.972410991727 	0.0341931094056 	0
1.0037363594 	0.0182623542863 	0
1.01999836447 	0.00830200478661 	0
1.02726205207 	0.00249192565709 	0
1.03032560513 	-0.000276101547228 	0
1.03092749259 	-0.00145875016749 	0
1.03050138794 	-0.00169193117707 	0
1.02971718159 	-0.00133930399716 	0
1.03026249887 	0.00417030180892 	0
1.03225430621 	0.00676372326509 	0
1.03551576216 	0.0105245162236 	0
1.03930580796 	0.0156849192169 	0
1.04534398987 	0.0233345468862 	0
1.05311908973 	0.0352402072487 	0
1.06225842703 	0.0532474641391 	0
1.07845621332 	0.0810000462423 	0
1.10087203919 	0.130374094453 	0
1.09983299859 	0.202886663137 	0
1.04473274373 	0.266320656576 	0
0.926862034167 	0.286494142086 	0
0.805963234649 	0.272873603451 	0
0.757766239559 	0.241667709252 	0
0.775528148951 	0.21097608619 	0
0.85243879804 	0.180954237507 	0
0.949279196007 	0.136845247385 	0
1.00629031267 	0.0860111132207 	0
1.02795475416 	0.0460983439264 	0
1.03364036224 	0.0239950916087 	0
1.03452766514 	0.0113392808466 	0
1.03391412639 	0.00472661289248 	0
1.03238081586 	0.00141795884258 	0
1.03086574636 	-5.42431429072e-05 	0
1.02952768717 	-0.000423792206168 	0
1.02771420714 	0.00392327892139 	0
1.02887872079 	0.00638936024858 	0
1.03057901708 	0.00990493418761 	0
1.03229769937 	0.0150661774628 	0
1.03435621972 	0.0229099134532 	0
1.03633649041 	0.0356476389585 	0
1.03729535348 	0.0556036854674 	0
1.03767773034 	0.0857210644545 	0
1.03629415347 	0.135432462649 	0
1.01911253168 	0.205455252661 	0
0.979516944486 	0.285962004166 	0
0.901521406298 	0.339891111387 	0
0.818457009719 	0.344984529502 	0
0.790148886986 	0.321056623423 	0
0.81486769776 	0.284212680948 	0
0.903147592341 	0.232640763226 	0
1.01142940443 	0.162851459572 	0
1.06422203109 	0.094006343347 	0
1.06682149934 	0.0496571460371 	0
1.05512553548 	0.0266720533444 	0
1.04641143971 	0.0131450128241 	0
1.04017251687 	0.00620796649204 	0
1.03549953423 	0.00236825585288 	0
1.03217210016 	0.000527739386376 	0
1.02985958708 	-8.2056123646e-05 	0
1.02552036268 	0.00285273954124 	0
1.02596697703 	0.00463462617405 	0
1.02622808644 	0.00717046367885 	0
1.02570855097 	0.0110582470509 	0
1.02364233892 	0.0174477844792 	0
1.01923752114 	0.0281847071189 	0
1.01080643697 	0.0465155991711 	0
0.99749011366 	0.0745183072251 	0
0.977995940486 	0.11765260559 	0
0.942321384963 	0.17721868589 	0
0.903230069381 	0.251948825977 	0
0.860875575847 	0.317866601369 	0
0.820755268389 	0.336909659395 	0
0.816032373536 	0.317792993894 	0
0.861702889203 	0.271574239562 	0
0.97595448622 	0.193991197589 	0
1.0898783495 	0.109989306825 	0
1.12032005868 	0.0532430061821 	0
1.09761390819 	0.0281320391224 	0
1.07212085683 	0.0153896937722 	0
1.05605368702 	0.00720586060879 	0
1.04539132948 	0.00340068506599 	0
1.03838349625 	0.000985494959405 	0
1.03342442543 	-3.09873412739e-05 	0
1.03019723878 	-0.000291410439561 	0
1.02428377832 	0.00126930880452 	0
1.02438651196 	0.0019891518795 	0
1.02386166054 	0.00296805538356 	0
1.02186854401 	0.00432173894766 	0
1.01692162821 	0.00669972529029 	0
1.00725933503 	0.0107973938511 	0
0.990734694909 	0.0194879289258 	0
0.966997183059 	0.0340737113786 	0
0.933179721463 	0.0597284698719 	0
0.882193404583 	0.0994631218675 	0
0.837163993802 	0.148114782091 	0
0.816216905047 	0.200079310051 	0
0.81831638772 	0.223984574687 	0
0.855196224546 	0.204672088599 	0
0.940954527469 	0.142963417173 	0
1.06676344541 	0.0608955728515 	0
1.15122477419 	0.00800703120849 	0
1.14559819277 	-0.00616282819893 	0
1.10582173716 	-0.00362394551597 	0
1.07704933453 	-0.00256340585679 	0
1.05887488162 	-0.00279000757762 	0
1.04670777883 	-0.00212353639076 	0
1.03912012254 	-0.00194081600794 	0
1.03361657497 	-0.00137281006285 	0
1.03011991209 	-0.000948775952505 	0
1.02414652964 	-0.000190416741283 	0
1.02441115938 	-0.000607457333274 	0
1.02409292091 	-0.00155970410756 	0
1.02239157496 	-0.00355045692155 	0
1.01758295864 	-0.00702927260295 	0
1.00712198872 	-0.0130422889317 	0
0.987839741786 	-0.0212726177612 	0
0.957862453421 	-0.0297282842507 	0
0.912518614833 	-0.0298669453325 	0
0.852469615304 	-0.0190171763367 	0
0.805456594782 	-0.00650398380558 	0
0.793219584414 	0.00444215409905 	0
0.82470321009 	0.00746151197305 	0
0.903907191221 	-0.00938245171379 	0
1.01408630253 	-0.0509474403143 	0
1.11629167532 	-0.0850900216227 	0
1.15627354251 	-0.0782445524111 	0
1.13182505129 	-0.0515243134966 	0
1.09480661887 	-0.0303188656507 	0
1.07142711312 	-0.0189290786721 	0
1.05550245767 	-0.0123918284621 	0
1.04435365924 	-0.00793297698518 	0
1.03747681498 	-0.00528754880973 	0
1.03238963141 	-0.00321071482148 	0
1.02924897606 	-0.00196913810342 	0
1.02488921392 	-0.00122112344931 	0
1.02589002706 	-0.00257477936754 	0
1.02687488872 	-0.00522835158876 	0
1.027495676 	-0.0100183835706 	0
1.02649886492 	-0.0183469661994 	0
1.0216995531 	-0.0328161285761 	0
1.0072198006 	-0.0568022740591 	0
0.97562030387 	-0.0884092258756 	0
0.921532246962 	-0.11476489516 	0
0.856418414505 	-0.131685651076 	0
0.812522562759 	-0.147952229443 	0
0.80360260361 	-0.168166873448 	0
0.837686102464 	-0.185138480853 	0
0.921205795426 	-0.192486645273 	0
1.02145607214 	-0.188787780119 	0
1.09637137502 	-0.166163038882 	0
1.11681619179 	-0.1223012252 	0
1.09650576864 	-0.0773378168523 	0
1.07405745171 	-0.0477718773639 	0
1.05953925488 	-0.0303232824134 	0
1.04813036651 	-0.0192285444474 	0
1.03968007965 	-0.0121707002253 	0
1.03432046547 	-0.00780307125158 	0
1.03020825671 	-0.00475300402274 	0
1.02769792255 	-0.0028378013348 	0
1.02617948277 	-0.00178886804188 	0
1.02834065604 	-0.00356724455563 	0
1.03133426164 	-0.00683848082602 	0
1.03539356768 	-0.0124827100708 	0
1.0403577568 	-0.022005027421 	0
1.04566826253 	-0.0387090025626 	0
1.04346760938 	-0.0677026171824 	0
1.01556968114 	-0.113038215902 	0
0.955676489635 	-0.160623162048 	0
0.885148562111 	-0.197866530321 	0
0.840297117313 	-0.230096362178 	0
0.82870890649 	-0.257641303291 	0
0.848040127199 	-0.276191000679 	0
0.907684933943 	-0.275442908708 	0
0.984230867382 	-0.246680771388 	0
1.043824582 	-0.196008286698 	0
1.06306744517 	-0.138070605916 	0
1.05495621349 	-0.0898426610945 	0
1.048138098 	-0.0572279780012 	0
1.04321943798 	-0.0358779470041 	0
1.03773609789 	-0.0221160783069 	0
1.03329300024 	-0.0136462263644 	0
1.03023360751 	-0.00846851224751 	0
1.02759938724 	-0.00508863622291 	0
1.02587900691 	-0.00298045399175 	0
1.02766035395 	-0.00167562171258 	0
1.03093463864 	-0.00318161465669 	0
1.03580720258 	-0.00573609364065 	0
1.04289786201 	-0.0100989808521 	0
1.05324733253 	-0.0170341066237 	0
1.06812009539 	-0.029486300037 	0
1.08202877356 	-0.0503997117577 	0
1.068538914 	-0.0915666028441 	0
1.00717609722 	-0.15152673622 	0
0.925476265759 	-0.206798612672 	0
0.871168494101 	-0.249672514209 	0
0.850622062466 	-0.277730933122 	0
0.854175914168 	-0.292222613915 	0
0.887185904138 	-0.28500399103 	0
0.934440442326 	-0.245377952836 	0
0.981556956321 	-0.186916018469 	0
1.00847163594 	-0.128722588523 	0
1.01416778266 	-0.0849663838672 	0
1.0197437027 	-0.0544667121209 	0
1.02418892005 	-0.0328618478043 	0
1.02573649097 	-0.0195029493588 	0
1.026078379 	-0.0115812320272 	0
1.02577238017 	-0.00693936809332 	0
1.02487026893 	-0.00403347829951 	0
1.0240649904 	-0.00230057873504 	0
1.02875407423 	-0.000792497427192 	0
1.03261367274 	-0.00142981735112 	0
1.03854522451 	-0.00238881990485 	0
1.04718510505 	-0.00417199957908 	0
1.06039196119 	-0.00655389928724 	0
1.08002077028 	-0.0112347368119 	0
1.10560553031 	-0.017501035867 	0
1.11583970579 	-0.0355526369763 	0
1.0716091362 	-0.0804214211606 	0
0.984556808211 	-0.142571216375 	0
0.911407256048 	-0.201242683233 	0
0.870017740548 	-0.234888869338 	0
0.852651352741 	-0.243486733213 	0
0.859303310443 	-0.225615286726 	0
0.882578252329 	-0.182438396067 	0
0.922859533411 	-0.132391879806 	0
0.960686562836 	-0.0857018023496 	0
0.980442919157 	-0.0532938787446 	0
0.995518018748 	-0.0324062271977 	0
1.00791515041 	-0.0179314359464 	0
1.01604701356 	-0.0100671114168 	0
1.02048696684 	-0.00571670810668 	0
1.022417898 	-0.0033452043616 	0
1.02284863462 	-0.00185872791498 	0
1.02275582008 	-0.00104653043255 	0
1.02887380203 	0.000502606004113 	0
1.0326728779 	0.00096316322103 	0
1.03868153422 	0.00179514381121 	0
1.04726307979 	0.0028754223726 	0
1.06052834012 	0.00514111021758 	0
1.07964037979 	0.00837215382455 	0
1.10657771772 	0.0152918580406 	0
1.13131630618 	0.0242200424198 	0
1.11516527413 	0.0194272957469 	0
1.04777893109 	-0.0137191232193 	0
0.965414646771 	-0.0619051098068 	0
0.895033409561 	-0.0900295348665 	0
0.848097091041 	-0.0936546945914 	0
0.832028600125 	-0.0810195538686 	0
0.84446251747 	-0.0589894509165 	0
0.883570046787 	-0.035492534298 	0
0.929428023277 	-0.0114982535797 	0