1.01412482638 	-0.00777436527667 	-1.1307859324e-21
1.01552970729 	-0.012168811718 	-8.724105251e-22
1.01724163044 	-0.0171361522473 	3.4561998525e-22
1.01931251668 	-0.0230482442382 	-2.15997698087e-23
1.02136710422 	-0.0300995041211 	-3.53206370061e-22
1.02289161187 	-0.0386910961283 	-2.1266180197e-22
1.02286380752 	-0.0487872960511 	-2.38790717552e-22
1.01931822857 	-0.05927934361 	-1.29085094001e-21
1.01031206885 	-0.0719351755038 	1.8985775212e-20
0.991082027015 	-0.0793602061418 	1.51848886653e-21
0.962512550144 	-0.07564064619 	6.61606615986e-23
0.931897944241 	-0.0518407954933 	1.96424487182e-21
0.916360598595 	-0.00866175154475 	-4.54085567446e-24
0.928010798362 	0.035693722591 	2.15640228232e-22
0.955761630819 	0.0620944351591 	-1.58195634448e-21
0.982951132431 	0.0692736258444 	1.8862024228e-21
1.00216890777 	0.0651429408917 	1.97899067306e-20
1.01230727338 	0.055096201225 	-1.59681596e-21
1.01731378324 	0.046817393252 	-1.66510693184e-21
1.01874950775 	0.0380171226179 	3.5171035793e-22
1.0184393129 	0.0301285544982 	8.69328079327e-22
1.01741139308 	0.0234250933424 	-2.77047055637e-23
1.01614585002 	0.0176182943149 	-4.52346465008e-22
1.01498331373 	0.0126292381776 	1.06990412998e-21
1.0139809175 	0.00807371073374 	1.07575226043e-21
1.01842662654 	-0.00809387132798 	3.62063252087e-22
1.02033214746 	-0.0126519984703 	7.39787821161e-22
1.02289974857 	-0.0180165770779 	3.81269461567e-22
1.02606935365 	-0.024405968712 	-1.03115562886e-22
1.02966765885 	-0.032277932908 	5.42071154681e-22
1.03313628543 	-0.0423556823631 	-2.23789124956e-22
1.03533615971 	-0.0551586296793 	3.72835112679e-22
1.03425092477 	-0.0717826774428 	1.48003116537e-22
1.02557986284 	-0.0924852860029 	-5.35856900065e-22
1.00203301647 	-0.113287193799 	-2.35150117366e-21
0.954323004159 	-0.124464165863 	-3.52690996592e-21
0.885399466852 	-0.0965127073049 	9.90902747489e-21
0.844789460181 	-0.0102470248547 	1.67013758576e-22
0.878914628317 	0.0776770980422 	9.82238436142e-21
0.943253347258 	0.110178402771 	-8.67884258429e-21
0.989664786715 	0.104437449613 	-2.31668586128e-21
1.01403324252 	0.0880198748413 	-5.3685844117e-22
1.024909771 	0.0706370115551 	-3.50463266728e-22
1.02824475135 	0.0558457728719 	-8.30048906695e-22
1.02815011379 	0.0438932287912 	4.09065440148e-22
1.02645489076 	0.0340724036711 	-9.11679783389e-22
1.02417641118 	0.0260559291466 	1.61949473689e-22
1.02194991794 	0.0193846879928 	-7.31436254884e-22
1.02001906414 	0.0136683962004 	-9.72853763216e-22
1.01852239459 	0.00875538959446 	-8.08661344175e-23
1.02272891257 	-0.00806221406964 	7.64656849077e-24
1.025265665 	-0.0124240679035 	2.44883252757e-22
1.02875803697 	-0.017822447061 	-1.93405574892e-22
1.03323302873 	-0.0242659400113 	-1.45055838133e-25
1.0387864498 	-0.032348988912 	1.16847037382e-22
1.04512397557 	-0.0431270345112 	2.23613338925e-23
1.05145363288 	-0.0579180983908 	-8.99200487327e-23
1.05597081078 	-0.0790116843152 	-4.07010618015e-22
1.0543994951 	-0.109387333836 	2.55064308351e-24
1.03645275548 	-0.15364923317 	7.16488243116e-22
0.974448758484 	-0.207994126033 	1.26040045827e-20
0.815669618877 	-0.219468632458 	-2.01018259909e-21
0.667491667441 	-0.0132037136733 	-2.65730705156e-21
0.804785806661 	0.195594433434 	-3.81977957348e-21
0.955944270118 	0.193325459651 	1.24801017923e-20
1.01775773886 	0.147825973508 	-7.8600671023e-22
1.03868701646 	0.109638104648 	-5.00089561278e-23
1.0441744144 	0.0824853768265 	1.2580527849e-21
1.04342295211 	0.0625975048805 	4.58352736301e-22
1.0400834732 	0.0478232883351 	-1.71881942437e-22
1.03592206633 	0.0364026267745 	-2.04489038249e-22
1.03185110452 	0.0274531546326 	2.43151672274e-24
1.02834783462 	0.0202193343263 	4.56023666446e-22
1.02548315163 	0.0140841993303 	-4.95245510991e-22
1.02331887192 	0.00902299402801 	-5.09795840953e-22
1.02691765509 	-0.00753868694746 	1.62141663415e-23
1.03002623774 	-0.0116012783027 	2.04537160712e-23
1.0343712689 	-0.0165226325247 	3.73548612746e-23
1.04023381938 	-0.022433311142 	5.05587931722e-23
1.04783525586 	-0.0298515014605 	6.20470049326e-23
1.05750113266 	-0.0400597666591 	3.22664684905e-23
1.06929459136 	-0.0547007207779 	-3.61314166382e-22
1.08289905493 	-0.0769595084904 	-4.24327624587e-22
1.09694674087 	-0.112963003449 	6.44494843569e-22
1.10631292634 	-0.176366025168 	-1.45997582164e-21
1.09152449304 	-0.303407551194 	1.19030835308e-21
0.879215641242 	-0.604070915449 	-7.13976938367e-23
0.856284446888 	0.563541126413 	1.29164439011e-21
1.05875170882 	0.289329004745 	-7.421486115e-22
1.07842853127 	0.176831719071 	-7.02435348519e-22
1.0765041988 	0.120774627169 	-1.90614918893e-22
1.06960326898 	0.0873460925966 	4.57566174488e-22
1.06151837223 	0.0647020859352 	2.72712484211e-23
1.05353182869 	0.0485102080253 	4.44848347797e-23
1.04627371515 	0.0363880068429 	6.60261344962e-23
1.04004114769 	0.0272045856289 	3.62689025487e-23
1.03498742907 	0.0198735037876 	-7.83369384171e-23
1.03108555512 	0.0138124395309 	7.48720823462e-24
1.02821057207 	0.00879529684989 	-9.12270270651e-24
1.03076464519 	-0.00651024576539 	8.41159187105e-24
1.0342909627 	-0.0102168408388 	-3.91679964692e-23
1.03930343519 	-0.0142631438118 	-4.34266842176e-23
1.04633258516 	-0.0190666995549 	1.35585310829e-24
1.05568945916 	-0.0249894653669 	-8.88005113582e-23
1.06841148104 	-0.032934452771 	-6.45168239877e-24
1.08557994653 	-0.0443506833908 	-7.88259506973e-24
1.10890044225 	-0.0621718042004 	3.92447224628e-23
1.14161322732 	-0.0923959338491 	-6.31787072761e-22
1.19028906123 	-0.14691294643 	-2.82743337356e-22
1.28223614005 	-0.24879579178 	2.39995046136e-22
0.0403902919027 	0.00136105950035 	-1.78441540063e-21
1.2293313204 	0.245705137947 	-2.10416470881e-22
1.15124978231 	0.159976084515 	2.74536349766e-22
1.11733629393 	0.11241604322 	6.95899288014e-22
1.09621221941 	0.0819337253402 	-1.96981829778e-22
1.08023032475 	0.0606300895271 	-2.19377329081e-24
1.06723022018 	0.0451929998104 	3.35486064664e-24
1.05658480492 	0.0337058943153 	4.03403871075e-23
1.04809891261 	0.0250389887236 	-9.703252598e-26
1.04142096434 	0.0182084701196 	-1.03112939147e-24
1.03646393385 	0.012718880764 	-6.90647955328e-24
1.03290850248 	0.00792040544979 	1.81037205721e-23
1.03386087704 	-0.00557435810128 	-3.10865042272e-24
1.03767327753 	-0.00828933333052 	5.93666048529e-23
1.04316822317 	-0.011375009581 	2.48755075028e-23
1.05083088915 	-0.014649605416 	1.46672762777e-23
1.06113234594 	-0.0183608155021 	1.65243444683e-22
1.0756610556 	-0.0226766535984 	2.57726357273e-22
1.09607872743 	-0.0281626252093 	-1.50793280326e-21
1.12588722977 	-0.0362093628134 	4.93061896332e-22
1.17099566403 	-0.0496475051658 	1.97553103598e-21
1.24237194831 	-0.0735172244364 	-1.20747829774e-20
1.34141407116 	-0.106085674234 	3.21300766678e-20
0.113109390573 	-0.0509824961125 	1.61152638968e-21
-8.16186509002e-05 	-0.0137070897364 	-4.31413747361e-22
0.149592837861 	-0.00529582597118 	1.82489425542e-23
1.260841823 	0.112466795544 	-2.85613543399e-20
1.19052059008 	0.109670021568 	8.47277075166e-21
1.14712491547 	0.0883593935879 	7.80572659596e-22
1.1184920986 	0.0675081211211 	1.93145161782e-22
1.09665645811 	0.0506158090596 	1.08254665786e-21
1.07951394807 	0.0378051536139 	-1.86960910312e-22
1.06580012567 	0.0281642534393 	-1.41864135237e-22
1.05524973997 	0.0209098236994 	-6.78497032999e-24
1.04711903208 	0.0152485083444 	8.64339134415e-24
1.04111778121 	0.010575686236 	-1.04858237841e-23
1.03690177248 	0.00679645778272 	-4.53647915527e-23
1.03637696197 	-0.00434157551206 	1.89624033403e-23
1.04014635423 	-0.00625376097647 	-4.128242426e-22
1.04576521659 	-0.00830915811483 	4.90370232479e-22
1.0534436625 	-0.0100159963997 	-4.09631028969e-24
1.06370269837 	-0.0113192535106 	-4.11365355799e-22
1.07791051797 	-0.0116303934656 	-4.30055362842e-22
1.09802231084 	-0.0101985333291 	1.23023350478e-21
1.12802778599 	-0.0057139444983 	4.34283364861e-21
1.17456009858 	0.00284520405315 	1.11439966645e-21
1.25335940708 	0.0144835745299 	4.33195892543e-21
1.34063181129 	0.0270311544527 	3.65344267407e-21
0.42998260136 	-0.118332870269 	-5.15171834906e-21
-0.156463507677 	-0.241813232658 	-3.40350847551e-21
0.128913739529 	-0.138809154946 	-5.13059163414e-21
1.17803089513 	0.0296320812555 	-1.99874386591e-21
1.19540252671 	0.0695829232991 	-2.48508693568e-21
1.16364829082 	0.0615491767379 	-9.31605491917e-23
1.13426604965 	0.0481380398674 	-3.63518588008e-21
1.10928701491 	0.0362485784641 	-1.08842818626e-21
1.0889834905 	0.0271642609104 	2.72579382698e-22
1.07306146938 	0.0203055834845 	3.33994295372e-22
1.06083545292 	0.0151315394081 	3.0571477568e-24
1.05158054183 	0.0111773824659 	-3.40852398854e-22
1.04477721552 	0.00770852298393 	2.80632227279e-22
1.04018087237 	0.00506170214869 	2.30524127063e-22
1.03825809289 	-0.00304884587962 	-3.06682187849e-22
1.04184321172 	-0.00434684862295 	-8.31991933425e-22
1.04715717675 	-0.00551235832174 	-5.76072947907e-22
1.05428848428 	-0.00599910410463 	8.53266325148e-23
1.06336644983 	-0.00537948608325 	-7.83096225568e-22
1.07545116744 	-0.00251047533203 	5.40160274668e-22
1.09141359678 	0.00469716747279 	-1.36065380702e-21
1.1141496822 	0.0198787734493 	-9.26025012518e-23
1.15273175631 	0.0508293707605 	-3.10631471717e-21
1.20712700445 	0.103820560355 	-3.89376169089e-21
1.28685505115 	0.199050794791 	9.41366564223e-21
0.691871137755 	0.180122290902 	1.6370178306e-20
-0.128333143246 	0.0464596207201 	6.59853146266e-22
0.0566685690041 	-0.0196697609541 	5.34754815311e-21
1.07191668036 	0.0356657174281 	-9.53135902724e-22
1.20128588278 	0.0536976494562 	-1.69644715528e-21
1.1768333716 	0.0367771010625 	-1.42069386523e-21
1.14468820406 	0.0256729192339 	2.86475263524e-22
1.11743200743 	0.0187187712645 	1.57344796541e-21
1.09524487154 	0.0139367116994 	-5.74671253366e-22
1.07740143831 	0.0107506516887 	8.47588695674e-22
1.06427328242 	0.00820016762894 	-9.14190383657e-23
1.05439777257 	0.0063317445723 	4.53558606615e-22
1.04723958815 	0.00445754288113 	6.01661557235e-22
1.04242767425 	0.00309314519118 	2.01073618789e-23
1.03944023709 	-0.00199596988656 	8.694844251e-22
1.04291884821 	-0.00274390834544 	7.43501902857e-22
1.04765717848 	-0.00328396818112 	-3.12645676431e-22
1.05394356457 	-0.00311093568838 	-1.2889136291e-22
1.06124212387 	-0.0015771036209 	4.1289369034e-22
1.0699854731 	0.00267451355681 	1.57924753557e-22
1.07964238028 	0.0123941782218 	-2.21526461648e-22
1.08792895265 	0.0308652742376 	7.03179166238e-22
1.1011296698 	0.0701346571684 	2.40641412244e-20
1.11154631643 	0.147405779567 	2.29907550588e-21
1.13159314085 	0.298124340361 	7.41426193197e-22
0.723770034776 	0.444597265456 	4.21996702934e-21
0.00764298660904 	0.448741424151 	-1.9394813941e-22
0.185168145201 	0.265142105243 	1.14758862931e-21
1.06139703998 	0.0695765105148 	-8.48081089854e-22
1.23410598919 	0.0337277178454 	1.52727569297e-21
1.1893747993 	0.00676892335438 	2.36449585693e-20
1.15060732956 	0.000520860607887 	4.49973832839e-22
1.12127914691 	-0.0024970055517 	2.77862495638e-21
1.09654694111 	-0.000670093893618 	-3.03796329838e-22
1.07848484864 	0.000225078280839 	-6.85378757738e-22
1.0651993682 	0.000792177091274 	1.22692459103e-22
1.05529556498 	0.00120225362063 	2.90995883257e-22
1.04830160225 	0.00119585296714 	-5.63919164821e-22
1.04342207447 	0.00102601147139 	-4.48561037484e-22
1.04018069056 	-0.0010445745209 	-1.06485430348e-21
1.04349341454 	-0.0014155544614 	-4.32668800738e-22
1.04772608011 	-0.00169812341284 	-6.75514639305e-23
1.0532096873 	-0.00146057062597 	-3.02048995062e-22
1.05901287263 	-0.000309447366709 	2.79441205077e-22
1.06455299319 	0.00336487760817 	-9.42924298349e-22
1.06602086997 	0.0093213984227 	-7.22288438694e-22
1.06370170344 	0.0246570099414 	-8.15293916312e-22
1.04927934003 	0.0556643178025 	2.00587900673e-21
1.00928074694 	0.116628110768 	1.0298227715e-22
0.945386124541 	0.247012736186 	-2.28512061984e-21
0.553569228792 	0.437378257207 	-1.57379163842e-21
0.118232041568 	0.526162420283 	-8.82031904395e-22
0.492824092398 	0.270651051147 	3.90651710737e-21
1.17693013327 	-0.00714234726251 	-3.25469510682e-21
1.27386016451 	-0.0370584989928 	1.39673322495e-21
1.19533984965 	-0.0424891087157 	3.63432726131e-21
1.14962599452 	-0.0324205931681 	-9.18148898015e-22
1.11519763324 	-0.0221523667335 	1.18224186255e-21
1.0924285825 	-0.0172564962774 	9.17975570727e-22
1.07642065768 	-0.0102247861187 	-1.54384736794e-21
1.06350580997 	-0.00626220999007 	2.83099158138e-22
1.05422222838 	-0.00353699702094 	9.15987335696e-23
1.04784147398 	-0.00193036843741 	6.26607785263e-22
1.04333130413 	-0.000948654643571 	2.70274392883e-22
1.04040115339 	-0.000247643259107 	1.2548617445e-21
1.04371685901 	-0.00020609041351 	-2.43793166012e-21
1.04777710329 	-0.000446295640618 	1.38066375606e-21
1.05272860056 	-3.58493119845e-06 	5.80850659553e-24
1.05754907683 	-0.000651258892266 	1.61900689038e-21
1.06136900736 	-0.000596141274759 	-3.9043982652e-22
1.06100632295 	0.000474284783289 	-9.56917480838e-22
1.05194325434 	0.00210918889784 	4.22441534788e-23
1.01840933047 	0.0119222712357 	1.69229161934e-22
0.954385961298 	0.0273450794228 	-1.7655801887e-22
0.802470673359 	0.0998415463791 	1.86267460618e-21
0.344728330827 	0.301807633959 	2.93850180273e-23
0.314729770465 	0.184488660355 	-5.10760348249e-22
0.819974742129 	-0.095248877961 	1.72639691323e-22
1.23098308063 	-0.189576430059 	-1.10730423419e-20
1.25416154741 	-0.144557227206 	1.19090197648e-21
1.17218254081 	-0.0961657555614 	1.39100668306e-21
1.13219484972 	-0.063775922763 	1.43803559979e-22
1.10181607717 	-0.042362662301 	-2.60446095654e-21
1.08305123864 	-0.0271860066658 	-7.48834862523e-22
1.06948095823 	-0.0183958161224 	1.95698376083e-21
1.05907221434 	-0.0123752969946 	-1.20319448579e-24
1.05142649786 	-0.00731574584186 	-1.58004187123e-21
1.04600807313 	-0.00471944522637 	2.54085732597e-21
1.04211591019 	-0.0024980472235 	-7.20763303332e-23
1.04033981833 	0.000653212319106 	-8.97594615338e-22
1.04380005161 	0.00114644787456 	-4.09457372986e-24
1.0474846372 	0.00159681148364 	2.46760196913e-21
1.05271689985 	0.000211499227069 	-1.07890173977e-21
1.05885753594 	-0.00125608879766 	1.45931663445e-21
1.06399034213 	-0.00354374221399 	-1.40336333942e-21
1.0655790488 	-0.0105860950162 	1.47177656123e-22
1.05909282079 	-0.0222533379763 	2.5145261219e-24
1.03144024414 	-0.0469097779775 	-1.20354408435e-21
0.942312532914 	-0.0868060588948 	1.52038381357e-21
0.650594886772 	-0.0488563108758 	-1.4837112437e-21
0.413800116479 	-0.0765565407293 	-6.94809229897e-22
0.550691814336 	-0.247809241889 	-3.16605306461e-22
0.93138302135 	-0.376538682229 	-3.13116263479e-21
1.1522403537 	-0.322076671607 	1.55453342283e-22
1.16757710515 	-0.216710553174 	-3.58057105719e-21
1.11832082724 	-0.132754595157 	2.78841226375e-21
1.09714631726 	-0.0850733819554 	2.81050032671e-23
1.08155893075 	-0.055102124734 	4.63116130976e-22
1.06910412462 	-0.0355541763237 	-2.88875102393e-21
1.05970057103 	-0.0229077176284 	2.30310380707e-21
1.05256404839 	-0.0147433734867 	-4.43040150796e-22
1.04694483518 	-0.00981538651806 	-3.18428109056e-21
1.04331972636 	-0.00663477819909 	-7.17382991443e-23
1.04020351528 	-0.0034771298852 	5.83076872666e-22
1.03953142202 	0.00184158483856 	7.14347998228e-22
1.04336805771 	0.00208123317569 	-3.63634123871e-22
1.04727426965 	0.00214962709205 	-2.02808217795e-22
1.05385814737 	0.0023015285457 	2.50993414428e-22
1.06117688957 	0.000466095426231 	2.33416344562e-22
1.07126591071 	-0.00303343196133 	3.91342915216e-22
1.07974185015 	-0.0146021157625 	8.41015206451e-23
1.09095867866 	-0.0333132500047 	6.48057219474e-23
1.09169989647 	-0.0893995942215 	1.04037341072e-22
0.99794708527 	-0.153694917865 	-2.83247911141e-23
0.678947188629 	-0.281401627103 	1.6128868403e-22
0.52820122569 	-0.385374711459 	8.78175985633e-23
0.650541357208 	-0.448042294127 	-4.31672752356e-22
0.906085571819 	-0.444712856268 	1.20155309666e-21
1.03737711805 	-0.34612210586 	1.34510020528e-21
1.05654955753 	-0.218787147126 	8.90157085601e-23
1.05457031966 	-0.136895930713 	-9.57671496098e-23
1.05793221419 	-0.0876649583964 	-3.95602151226e-23
1.05621157085 	-0.0564306109652 	1.24829729368e-22
1.05320574491 	-0.0364600726835 	8.2633547227e-22
1.04982950676 	-0.0237047740583 	2.64071293596e-22
1.04563227467 	-0.0152659194403 	1.69110320977e-22
1.04243733683 	-0.00997885371823 	-3.90730370677e-22
1.04032093646 	-0.00676814911799 	-9.61877614369e-22
1.03789746286 	-0.00387919380207 	-6.01007295957e-22
1.0385685325 	0.00289221717171 	-1.8360181353e-21
1.04165573299 	0.00348925974146 	5.96787916748e-22
1.04691166495 	0.00489912821845 	3.23401060071e-25
1.053963438 	0.00518442903209 	4.28996483225e-23
1.06347311203 	0.00610892934142 	-2.18738458195e-22
1.07805244003 	0.00507440508949 	2.65810253827e-23
1.09489687254 	-0.00455422454655 	3.55104282727e-22
1.13131450582 	-0.0103986036681 	2.57651138702e-23
1.18504673529 	-0.0633156336099 	4.83826705028e-24
1.12239521136 	-0.129507802794 	-1.25100549005e-22
0.841707360577 	-0.294636952001 	-1.1388018795e-21
0.620496860371 	-0.452563108325 	5.77063419855e-24
0.64273245841 	-0.478500495823 	-3.15134793479e-22
0.808671174754 	-0.399101290009 	2.79584558791e-22
0.908162363964 	-0.281646866655 	1.95681677647e-22
0.947719452861 	-0.178857626472 	-1.51231684054e-23
0.985910218239 	-0.109904101852 	1.92035572244e-23
1.01980620305 	-0.0702449508468 	3.22471170473e-23
1.03302557262 	-0.0455249993487 	5.95478674479e-22
1.03831919928 	-0.0290947305003 	-1.41884564623e-22
1.04125156784 	-0.0199938387069 	-3.06502578924e-22
1.04027116072 	-0.0133158940838 	5.07546188444e-23
1.03880455856 	-0.00884694707843 	9.74607792784e-24
1.0368034744 	-0.0059232900511 	7.24942520616e-22
1.03543055987 	-0.00390940235861 	1.39412911267e-22
1.03695016577 	0.00286902585343 	-3.57052335962e-22
1.04033138205 	0.00509540743126 	-3.85625055556e-22
1.04556310665 	0.00733376613865 	1.15172487056e-22
1.05216352041 	0.00941716840884 	6.12871987223e-24
1.06272386467 	0.0136631024672 	1.12348999551e-22
1.07801699573 	0.0150446826803 	2.28814699381e-22
1.10030961208 	0.0190240426745 	1.6872842923e-23
1.14652528562 	0.0238344111354 	-4.13398315739e-22
1.21099006485 	0.02558732205 	6.82223610499e-22
1.19937617364 	0.0183046090891 	3.73060918172e-22
1.01592347989 	-0.0686815162483 	-7.68109401064e-22
0.765936538313 	-0.219426312229 	0
0.64427688871 	-0.307522602715 	-2.63080268439e-36
0.684800702213 	-0.287887812472 	-4.17069732701e-25
0.789690435606 	-0.191764544855 	1.01055554779e-22
0.879837765511 	-0.106115521658 	-1.13490156868e-22
0.945944567632 	-0.0649724783648 	-8.42182527541e-23
0.991514733805 	-0.0405824826182 	1.16576869943e-22
1.01651736821 	-0.0252531789954 	-2.75521526773e-24
1.02763255759 	-0.0170625199872 	8.31056773951e-23
1.03345009221 	-0.0123401292666 	1.08899595605e-22
1.03556024659 	-0.00865725022297 	2.93861291052e-23
1.0354824301 	-0.00618587739276 	1.39173928838e-22
1.03470810738 	-0.00430669861425 	-4.27181614415e-22
1.03369891445 	-0.00260898584444 	-4.03293600703e-22
1.03508714221 	0.00395984641659 	0
1.03802019617 	0.00655317536134 	0
1.04260690032 	0.00972925650738 	0
1.04821535595 	0.0135549233185 	0
1.05743164568 	0.0199059232005 	0
1.07082496564 	0.0273369068078 	0
1.08850893927 	0.040144450182 	0
1.12443004917 	0.0611636201141 	0
1.18203823427 	0.0982184491484 	0
1.19456320223 	0.148790973076 	0
1.08685359292 	0.157432204951 	0
0.885121194299 	0.0831680210459 	0
0.716718582578 	-0.00541449252924 	0
0.676137288849 	-0.0475579189837 	0
0.731134514058 	-0.0307290543937 	0
0.831548280633 	0.00495568587381 	0
0.925754113485 	0.00994611041515 	0
0.981428962462 	0.00457103720839 	0
1.01186169023 	0.00115124755949 	0
1.02632118055 	-0.00164539012411 	0
1.03245787596 	-0.00329151533151 	0
1.03472549047 	-0.0035676204053 	0
1.03485269063 	-0.00333938305427 	0
1.03395029058 	-0.00279666889704 	0
1.03283752903 	-0.00189166999288 	0
1.03275280468 	0.00452480874681 	0
1.03493678892 	0.00730687521595 	0
1.03840425743 	0.0111400519132 	0
1.04250272579 	0.0163336396034 	0
1.0489337244 	0.0238915422911 	0
1.05772578145 	0.0354451066576 	0
1.06827682568 	0.0532504645055 	0
1.08754402097 	0.0802012764274 	0
1.11831496169 	0.129728696957 	0
1.12885022666 	0.206282477987 	0
1.06996787876 	0.26965474028 	0
0.927387498104 	0.276699291752 	0
0.776152699627 	0.245004659174 	0
0.714246880461 	0.201252493915 	0
0.741572819438 	0.170934622496 	0
0.83927402661 	0.147197952472 	0
0.947228291417 	0.105926118928 	0
1.00273137402 	0.0615682608044 	0
1.02568422253 	0.0306351981562 	0
1.03427797304 	0.0146197262483 	0
1.03653444404 	0.00549886593526 	0
1.0366063694 	0.00101739190854 	0
1.03536637858 	-0.000874637547297 	0
1.03373695281 	-0.00144187587989 	0
1.03220286716 	-0.00121303539838 	0
1.03027161566 	0.00443049333436 	0
1.0316723159 	0.00714224381911 	0
1.0337888112 	0.0109352213262 	0
1.03617965207 	0.0164544368078 	0
1.03920482313 	0.0243439983592 	0
1.04258776438 	0.0370352091757 	0
1.04586069693 	0.0565059956216 	0
1.04907641731 	0.0852024799718 	0
1.05164911958 	0.135178113257 	0
1.04368313524 	0.210745665702 	0
1.00696215478 	0.297232309144 	0
0.908559809095 	0.351749491844 	0
0.795218185159 	0.355019477399 	0
0.752881297514 	0.326526396728 	0
0.785185808081 	0.286011366268 	0
0.893674410112 	0.229429700865 	0
1.00989103721 	0.155233520644 	0
1.05572553877 	0.0866212228397 	0
1.05801347104 	0.0432958996227 	0
1.05065720594 	0.0218898598121 	0
1.04507019052 	0.00935924938268 	0
1.04069423745 	0.0033288597911 	0
1.03694445729 	0.000405007247653 	0
1.03406433028 	-0.000738058315515 	0
1.03190705782 	-0.000855170236606 	0
1.02781684318 	0.00368207481378 	0
1.02851079631 	0.00590652693577 	0
1.02920869723 	0.00891520275212 	0
1.02950796733 	0.0134261465341 	0
1.02862101618 	0.0203296903025 	0
1.02592818096 	0.0315532239863 	0
1.02027575865 	0.0500293614467 	0
1.00882133068 	0.0787735034121 	0
0.989954886959 	0.124435135837 	0
0.959089014474 	0.189265437744 	0
0.92254801603 	0.275522705383 	0
0.862876616189 	0.349296754835 	0
0.797284506053 	0.368659286964 	0
0.781972094292 	0.346626311596 	0
0.836002571397 	0.29658461269 	0
0.971527324016 	0.212202631027 	0
1.09258516676 	0.120915876922 	0
1.11519633246 	0.0596942047619 	0
1.09077124707 	0.0303539719833 	0
1.0679674551 	0.0154093803382 	0
1.05446166251 	0.0061979532345 	0
1.04528659282 	0.00221567640071 	0
1.03910207739 	-7.82784977933e-05 	0
1.03473734814 	-0.000862957334487 	0
1.03188193857 	-0.000899710466038 	0
1.02594569724 	0.00226586359418 	0
1.02613925468 	0.00354293545396 	0
1.02577384648 	0.00512820959518 	0
1.02420670781 	0.00739573124849 	0
1.01996856727 	0.0111432308859 	0
1.01164709186 	0.0172685630327 	0
0.996939635743 	0.0288562856006 	0
0.973708187478 	0.048277564791 	0
0.939470622051 	0.0794070489702 	0
0.8887215076 	0.125442590131 	0
0.842021378286 	0.188082692517 	0
0.809934166337 	0.254069962306 	0
0.794880802095 	0.280841842101 	0
0.823750971052 	0.254361785697 	0
0.921556695193 	0.180052311934 	0
1.07153978474 	0.0849495451225 	0
1.16170690937 	0.0230227384371 	0
1.14716730331 	0.00329491786052 	0
1.10462763415 	0.00124260889814 	0
1.07645999093 	-0.000641646748929 	0
1.05920537911 	-0.00241448765561 	0
1.04755038437 	-0.00228381069598 	0
1.04030507893 	-0.00241699104192 	0
1.03500822159 	-0.00187596181899 	0
1.0316999441 	-0.00138207589419 	0
1.02517649929 	0.000623807613541 	0
1.02535512976 	0.000725897540838 	0
1.02489186937 	0.000502111144421 	0
1.02301102932 	-0.000295279857363 	0
1.0180069347 	-0.0018260732272 	0
1.00763678977 	-0.00467838566993 	0
0.988464989959 	-0.00796818064588 	0
0.958238696022 	-0.0105485288549 	0
0.912267066833 	-0.00561474679132 	0
0.848385064577 	0.0109259810273 	0
0.795906699023 	0.0349498702043 	0
0.777894934072 	0.0589381032357 	0
0.80516281534 	0.0655745031524 	0
0.888283742819 	0.03742842424 	0
1.01434691324 	-0.0246894986877 	0
1.13512684889 	-0.072633829832 	0
1.17409618466 	-0.0693611270993 	0
1.1379523652 	-0.0451241577665 	0
1.09684158228 	-0.0267498155337 	0
1.07293862889 	-0.0173017382925 	0
1.05694185341 	-0.0119700345281 	0
1.04580874066 	-0.0079893635917 	0
1.03907208366 	-0.0056468493448 	0
1.03395628405 	-0.0035904498768 	0
1.03079621492 	-0.00227727214197 	0
1.02549957687 	-0.000606430929127 	0
1.02629351861 	-0.00146758747461 	0
1.02690521882 	-0.00339779679393 	0
1.0268854209 	-0.00714751081097 	0
1.02479856276 	-0.0139365193764 	0
1.01863827059 	-0.0260141648628 	0
1.00331891297 	-0.0461220259782 	0
0.971986821781 	-0.074570509202 	0
0.916914380289 	-0.0993090886462 	0
0.845525130018 	-0.113790956593 	0
0.794624521415 	-0.124599552824 	0
0.783701939658 	-0.141312740191 	0
0.824987024746 	-0.159554210054 	0
0.924408220467 	-0.175053616235 	0
1.03809759246 	-0.183758801856 	0
1.11858821451 	-0.164230507336 	0
1.13395668974 	-0.117020333225 	0
1.10431155626 	-0.0724308063237 	0
1.07742990318 	-0.0450399023839 	0
1.06162589564 	-0.0290310882309 	0
1.04970157816 	-0.0189048387179 	0
1.04101561272 	-0.0123459279169 	0
1.03569703027 	-0.00821390714796 	0
1.03155059253 	-0.00513932021107 	0
1.0290332209 	-0.0031349106949 	0
1.0264748712 	-0.00119710665314 	0
1.02833412719 	-0.00258155732497 	0
1.03079433091 	-0.00546688763526 	0
1.03398656178 	-0.0107109178305 	0
1.03743157958 	-0.0198064075531 	0
1.04068462474 	-0.0360694415262 	0
1.03778418614 	-0.0642429975522 	0
1.01178618963 	-0.109484249555 	0
0.951071700493 	-0.158616756127 	0
0.872916446441 	-0.196950250673 	0
0.82131776438 	-0.228676888472 	0
0.810016006201 	-0.258324411552 	0
0.838821984629 	-0.279902671133 	0
0.915479811673 	-0.281649439863 	0
1.0020833561 	-0.252895328265 	0
1.06138194723 	-0.197945815914 	0
1.07678531687 	-0.135779865667 	0
1.06380894388 	-0.0863661865068 	0
1.05340775657 	-0.0551752021896 	0
1.04655706615 	-0.0351178330529 	0
1.04000673551 	-0.0221391296899 	0
1.03488077831 	-0.014091954248 	0
1.03151972559 	-0.00903544366799 	0
1.02869716783 	-0.00559415894249 	0
1.02693562748 	-0.00335867798887 	0
1.02761404076 	-0.00124059712732 	0
1.03058381213 	-0.00259545638728 	0
1.03494048192 	-0.00516503939859 	0
1.04122702236 	-0.00969120550871 	0
1.05028326229 	-0.0170601473097 	0
1.06344121904 	-0.0305405655095 	0
1.07723463255 	-0.0531264797174 	0
1.06625951247 	-0.0963975594479 	0
1.00470822417 	-0.159766833706 	0
0.915308391503 	-0.218271924703 	0
0.85478149836 	-0.262915321189 	0
0.83565389117 	-0.293987149241 	0
0.846779031881 	-0.311459626256 	0
0.892107731259 	-0.304706732062 	0
0.946833493555 	-0.26030281148 	0
0.99399439447 	-0.195513522002 	0
1.01896273556 	-0.13344189343 	0
1.02258425104 	-0.0867655633232 	0
1.02626883507 	-0.0555131576966 	0
1.02886657117 	-0.0340317047776 	0
1.02890714066 	-0.0206621720973 	0
1.02820149293 	-0.0126552410766 	0
1.02727984835 	-0.00782217082883 	0
1.02599702804 	-0.004719116283 	0
1.02500680098 	-0.00276982392078 	0
1.02851644645 	-0.000703359289951 	0
1.03218827092 	-0.00139980481546 	0
1.03780754089 	-0.00253655210485 	0
1.04595797928 	-0.00469366486798 	0
1.05849812091 	-0.00774753268731 	0
1.07737848683 	-0.0138555307624 	0
1.10362577418 	-0.0224903946418 	0
1.11715657277 	-0.0435507514492 	0
1.07356303018 	-0.094027525229 	0
0.977473067827 	-0.163523850931 	0
0.896243815198 	-0.227584206954 	0
0.856833914057 	-0.26516895183 	0
0.84661793661 	-0.277389202454 	0
0.860891662773 	-0.258246276188 	0
0.888107436191 	-0.208025912719 	0
0.929677720784 	-0.150788962595 	0
0.967234217707 	-0.0989450791592 	0
0.98590243178 	-0.062520913714 	0
1.00044137554 	-0.0387125890283 	0
1.01180114416 	-0.0222571139837 	0
1.01866263456 	-0.0129692976661 	0
1.02226441871 	-0.00767336729915 	0
1.02370049146 	-0.00465802646357 	0
1.02384283621 	-0.00273959214414 	0
1.0235668342 	-0.00159640742812 	0
1.02878532288 	0.000420686914273 	0
1.03255247303 	0.000767090118977 	0
1.0384809504 	0.00141227069204 	0
1.04689050328 	0.00207139340721 	0
1.06002848644 	0.00365573479244 	0
1.0791912362 	0.00556139065306 	0
1.10752514827 	0.0105118416045 	0
1.13756155893 	0.0170739792256 	0
1.1249754366 	0.00760313225374 	0
1.05031050505 	-0.0336584523309 	0
0.958275962083 	-0.0930559176092 	0
0.886409915297 	-0.130930851663 	0
0.842146500831 	-0.138501432307 	0
0.827867998943 	-0.121289823068 	0
0.841548739601 	-0.0902380777442 	0
0.883126692894 	-0.0588833574436 	0
0.930712923131 	-0.0286089493613 	0
0.962705369872 	-0.0105836495933 	0
0.985482246797 	-0.00310966635667 	0
1.00283498037 	-2.05245653299e-05 	0
1.0139522466 	0.000271675947969 	0
1.01968722004 	0.000129805167457 	0
1.02214413161 	-9.75989037948e-05 	0
1.0228805206 	-0.000120984293889 	0
1.02291834285 	-0.000160755051876 	0
1.02807194683 	0.00170043375251 	0
1.03140809763 	0.00299823343784 	0
1.03672194313 	0.00516768172494 	0
1.0440329944 	0.00830683591275 	0
1.05539617276 	0.0137150424136 	0
1.07115441255 	0.0220694085149 	0
1.09303045041 	0.0362670151109 	0
1.12041298806 	0.0609075541343 	0
1.12524618542 	0.0880662492517 	0
1.08198188227 	0.0949504008611 	0
1.00026780816 	0.0782170745501 	0
0.909995399263 	0.0639136725933 	0
0.843507437381 	0.0595691884067 	0
0.817566720709 	0.0567841682583 	0
0.827513700342 	0.0536742997502 	0
0.866586789632 	0.0537460417793 	0
0.918552100654 	0.0569028876182 	0
0.960513548268 	0.0523935649477 	0
0.989453531691 	0.0388466228898 	0
1.00840553349 	0.0246078626662 	0
1.01842938048 	0.0144720169918 	0
1.0225289483 	0.00826652678577 	0
1.02376937085 	0.00456206237008 	0
1.02377879268 	0.00245286903267 	0
1.02338908316 	0.00121808929592 	0
1.02653834871 	0.00247637352195 	0
1.0290785102 	0.00434467895192 	0
1.03305383937 	0.00751338371264 	0
1.03826705377 	0.0124237379282 	0
1.04618213617 	0.0206303670737 	0
1.05659447129 	0.0336759748892 	0
1.06868247292 	0.0538609174234 	0
1.08344836748 	0.0865305306802 	0
1.08973195004 	0.129112661681 	0
1.06196951913 	0.166391155741 	0
0.992516836167 	0.188343735735 	0
0.909058978963 	0.200081166946 	0
0.850480731603 	0.198888666611 	0
0.831793726347 	0.18441226016 	0
0.842009638075 	0.164520604906 	0
0.87787238421 	0.144202452654 	0
0.931969670218 	0.125099754276 	0