1.01393171413 	-0.00809028614691 	-1.30860831119e-21
1.01496161212 	-0.012554507826 	-1.00642821678e-21
1.01614935708 	-0.0174758487144 	3.89727545028e-22
1.01746770069 	-0.0231865997978 	-1.62626901762e-23
1.01858473122 	-0.0297669309187 	-4.11542840887e-22
1.01901389369 	-0.0375269473733 	-2.30270227639e-22
1.01771702764 	-0.0462075387476 	-2.59771063134e-22
1.01297109665 	-0.0547271563603 	-1.36135776465e-21
1.00304190758 	-0.0646693269422 	1.97428206615e-20
0.983799794041 	-0.0689691300415 	1.54377359888e-21
0.95640712732 	-0.0620362276299 	6.11524780509e-23
0.928396045131 	-0.0357021606679 	1.96764199953e-21
0.916402541677 	0.00851410914059 	-3.77580501828e-24
0.931645002946 	0.0517835977378 	2.20645632882e-22
0.961960346047 	0.0756073785447 	-1.5388585293e-21
0.990276585219 	0.0795599772778 	1.8173977104e-21
1.00943554707 	0.072302844079 	1.84603439998e-20
1.01861242444 	0.0595470338763 	-1.46055016901e-21
1.0224078646 	0.0493204490269 	-1.47252047163e-21
1.02258289826 	0.0391337206379 	3.0734574567e-22
1.0211783561 	0.0304292782531 	7.14926949467e-22
1.0192124391 	0.0232630885201 	-1.29767944965e-23
1.01720115381 	0.017266629164 	-3.76651195321e-22
1.01552000356 	0.0122353619165 	8.64722072339e-22
1.0141468938 	0.00775611565022 	8.69696749615e-22
1.01842732916 	-0.00873709925328 	4.33213534861e-22
1.0199182629 	-0.0135687783886 	8.80560852298e-22
1.02184196479 	-0.0191776618681 	4.97827577935e-22
1.02408619996 	-0.0256968211072 	-1.20537910573e-22
1.02640674673 	-0.0334886121847 	6.22859094066e-22
1.02822178845 	-0.0430599549492 	-2.63785590589e-22
1.02854259257 	-0.0547657287156 	4.51942166782e-22
1.02551244702 	-0.0693944600133 	1.64227478021e-22
1.01498703664 	-0.0869120986241 	-5.63935823641e-22
0.990822598563 	-0.103642142295 	-2.45529973603e-21
0.944281427221 	-0.109974799952 	-3.61111366539e-21
0.879217469487 	-0.0776057551786 	9.94997507317e-21
0.844884404437 	0.0105665282277 	1.66119479814e-22
0.885280524542 	0.0964702327484 	9.66512756804e-21
0.953412189754 	0.12450825546 	-8.36923965102e-21
1.00091995205 	0.113909657583 	-2.14998552919e-21
1.02460789625 	0.0934321090495 	-4.88050640087e-22
1.03359448327 	0.0728984104698 	-3.02387509642e-22
1.03497622799 	0.0561531778097 	-6.52303388672e-22
1.0329980638 	0.0431273693299 	3.27022082102e-22
1.02965727237 	0.0328190468489 	-7.46959361203e-22
1.02610708045 	0.0247360576891 	1.29821258403e-22
1.02296487698 	0.0182051978199 	-5.19788195375e-22
1.02039537549 	0.0127421347669 	-7.61253032332e-22
1.01848947265 	0.00810508687959 	-9.05078127777e-23
1.02314779109 	-0.00905494767072 	9.04233444021e-24
1.0252799864 	-0.01400070185 	3.3445335431e-22
1.0280925335 	-0.020013504167 	-2.89124355247e-22
1.03155199351 	-0.0270612704896 	-9.72358431563e-25
1.03560242432 	-0.0357114879335 	1.55147218995e-22
1.03981000758 	-0.0467361305624 	8.81768566149e-23
1.04336323227 	-0.0610822236122 	-2.16596919084e-22
1.0446059018 	-0.0805122785372 	-6.55926268262e-22
1.03990945861 	-0.107543174496 	-2.76980781441e-23
1.01984415521 	-0.146398471678 	7.88450074552e-22
0.95807618905 	-0.193524140756 	1.31478279857e-20
0.803991362295 	-0.196395339641 	-2.02557599646e-21
0.667685599751 	0.0147863210081 	-2.64749249133e-21
0.81674805155 	0.218470887369 	-3.73921671747e-21
0.972475495655 	0.207558937898 	1.17132065054e-20
1.03440174038 	0.154820530766 	-6.90615816916e-22
1.05313136123 	0.111271787057 	-3.1269349012e-23
1.05543846466 	0.0808342072229 	8.2326934219e-22
1.05140048457 	0.0593363103962 	2.44528528044e-22
1.04530720461 	0.0441587254582 	-7.93414693042e-23
1.03902874287 	0.0330112931608 	-1.45638752661e-22
1.03347033195 	0.024635151173 	9.76301708603e-25
1.0289632827 	0.0180128814566 	2.88431230756e-22
1.02542839429 	0.0125022038029 	-3.36493421429e-22
1.02285993407 	0.00802961428112 	-3.60036476381e-22
1.02799425566 	-0.00888811229003 	2.50527060865e-23
1.03079165683 	-0.0138210585158 	1.17312845209e-23
1.03457743447 	-0.0197740409507 	5.30957347069e-23
1.03950024707 	-0.0269228701236 	1.38026799635e-23
1.04556295008 	-0.0357682192742 	1.09645496924e-23
1.05272914328 	-0.0473662553402 	-3.06119562905e-24
1.06081747583 	-0.062846996928 	-2.21276206693e-22
1.069443652 	-0.0845356263919 	-3.54883439771e-22
1.07775226359 	-0.117316057174 	4.91334947727e-22
1.08215560017 	-0.173825922901 	-1.27684107426e-21
1.06511978421 	-0.290721973644 	1.0343480095e-21
0.853077083519 	-0.575901035424 	-8.60306470955e-22
0.882770652676 	0.591372226477 	8.98702559209e-22
1.08534748084 	0.301662826369 	-9.77984635311e-22
1.10259071891 	0.178989240985 	-1.04501732606e-21
1.09554226399 	0.116129085721 	-3.49389139877e-22
1.08287850108 	0.0796177252395 	6.45917560556e-22
1.06982838258 	0.0564849055348 	2.08934211167e-22
1.05817873285 	0.0411872981174 	-6.04607998729e-24
1.04845475835 	0.0304715798188 	-1.90911064656e-23
1.04070572716 	0.0227237512026 	-1.90460602033e-23
1.03472694401 	0.0166269691177 	-5.2712740653e-23
1.03027456294 	0.0115948723635 	-9.78318942168e-24
1.02709313767 	0.00745737790663 	-3.4908891798e-24
1.03268966116 	-0.00807577129801 	1.08391537433e-24
1.03612759515 	-0.0128731500379 	-2.3302722497e-23
1.04090067984 	-0.0183341270222 	-2.76092685154e-23
1.04732959818 	-0.0250510049176 	9.71153547001e-25
1.05546372734 	-0.0334184823754 	-6.6450393157e-23
1.06571717446 	-0.0443417404406 	-4.95074868612e-24
1.0784592443 	-0.0587769189824 	-6.38406445044e-24
1.09465351353 	-0.078396553364 	3.17656765419e-23
1.11739051483 	-0.10671943099 	-5.36681829253e-22
1.15569250058 	-0.152402970866 	-2.58130264399e-22
1.24354558248 	-0.239387228288 	2.37724504148e-22
0.0389438478241 	0.00152895560922 	-1.79582000897e-21
1.2684597761 	0.25453187277 	-2.18622918587e-22
1.18574743055 	0.153848541894 	3.04313432444e-22
1.1412163477 	0.0977228852085 	8.67047928714e-22
1.11013610192 	0.065605171282 	-2.60609807455e-22
1.08710535901 	0.0462142025989 	-3.11495403518e-24
1.06977928867 	0.0338414751063 	5.89836194129e-24
1.05672434145 	0.0253300023927 	7.07991303979e-23
1.04703671281 	0.0191025412171 	-2.04752587123e-25
1.03977564898 	0.0141719966754 	2.76252341353e-23
1.03458272236 	0.0100859242948 	2.25130520533e-23
1.03094276697 	0.00637140406535 	6.97980807404e-25
1.03674243448 	-0.00708576472647 	-3.67134884178e-24
1.04083451634 	-0.0109355073792 	4.34894055844e-23
1.04659595055 	-0.015699125245 	1.13063387759e-23
1.0543749368 	-0.0214022913988 	1.2582389922e-23
1.0643456598 	-0.0285581169413 	1.38760064262e-22
1.07723906298 	-0.0377908246269 	2.19908883014e-22
1.09341163191 	-0.049532217671 	-1.23911115077e-21
1.11435171691 	-0.0640727302064 	3.93760425027e-22
1.14335589437 	-0.0806571900786 	1.64635350008e-21
1.19106549599 	-0.0950973756162 	-1.02112895419e-20
1.27430408555 	-0.0916155472938 	3.01760755831e-20
0.150255601614 	-0.00617125735123 	1.85481152209e-21
-0.00050025489619 	0.0087405910137 	-4.2399768422e-22
0.115578896435 	0.043981735082 	8.98077550375e-23
1.3289784047 	0.125228636838 	-3.13012383234e-20
1.24116312868 	0.0868814265722 	1.03601562187e-20
1.1739663369 	0.056982765484 	1.01832410106e-21
1.12950018507 	0.0397141693495 	2.54080634457e-22
1.09900624929 	0.0294314124628 	1.40594976664e-21
1.07779324494 	0.0228462664795 	-2.38145669096e-22
1.06252381509 	0.0180741421266 	-1.92972292847e-22
1.05166149807 	0.0142316439457 	-8.90344949932e-24
1.04365978315 	0.0109740682552 	-1.49215612111e-23
1.03792882146 	0.00796783729815 	-4.28274919682e-23
1.03398775933 	0.00531350014154 	-9.46477281923e-23
1.04016814691 	-0.00545591255853 	1.32112041631e-23
1.04464896679 	-0.00827956994796 	-3.87627800448e-22
1.05122008722 	-0.0120022332482 	4.54548746767e-22
1.06009935485 	-0.0162152359008 	-3.57931160889e-24
1.07155583208 	-0.0216872070536 	-3.82988400476e-22
1.08628051948 	-0.0286033874889 	-3.71459558028e-22
1.10467939599 	-0.037204239224 	1.04817691171e-21
1.12670108578 	-0.0469234741952 	3.49514061213e-21
1.1526882846 	-0.054674152627 	8.5900864372e-22
1.18321413376 	-0.0496518734543 	3.01846610696e-21
1.18414214561 	0.0117514463543 	3.02073943132e-21
0.179576599231 	0.177411015192 	-4.35321593397e-21
-0.161303473735 	0.283490672279 	-3.27499761268e-21
0.39241459978 	0.15270678932 	-6.63912391056e-21
1.33526264498 	0.011273811969 	-2.44757069247e-21
1.26295764675 	0.00425541448739 	-3.72145418067e-21
1.18396842821 	0.00413217681801 	-1.22033262019e-22
1.13490595799 	0.00749405809013 	-4.64755462275e-21
1.1024020688 	0.00969526039699 	-1.33871935799e-21
1.08057772104 	0.010433396923 	3.36150780748e-22
1.06519740623 	0.0100777840836 	3.90074768601e-22
1.05417307687 	0.00898721349671 	4.06760695188e-24
1.04611196476 	0.00751598432432 	-4.39830547365e-22
1.04025400832 	0.00568063488396 	3.68562938742e-22
1.03636989407 	0.00395265395552 	3.09640528762e-22
1.04263991418 	-0.00354067100754 	-3.12322848514e-22
1.04738984457 	-0.00521148166954 	-8.49035557172e-22
1.05440654987 	-0.00749670960328 	-5.53308943584e-22
1.06400010917 	-0.00991316644412 	9.32015100353e-23
1.07642217013 	-0.0132279953176 	-8.04129282014e-22
1.09285027191 	-0.0174015556302 	5.03654743919e-22
1.11245832222 	-0.0230270867985 	-1.22006194892e-21
1.13465560924 	-0.0299967179455 	-8.35291489679e-23
1.15771103278 	-0.0375716307876 	-2.01617470928e-21
1.16594582083 	-0.0400339107858 	-2.30490506091e-21
1.04009994337 	0.012115880241 	2.70832025068e-21
0.0414659351266 	0.169254690941 	6.78467491515e-21
-0.111545387988 	0.134424735242 	6.53230349724e-22
0.68716546397 	-0.054336815229 	1.56088761961e-20
1.31571372929 	-0.154034680877 	-2.69269947837e-21
1.23588743522 	-0.0913620563455 	-2.77656865532e-21
1.16977479901 	-0.0497209078601 	-2.14953052148e-21
1.12335595197 	-0.0230563180814 	3.24695546882e-22
1.09652076712 	-0.00832620873853 	1.81470130471e-21
1.07794891175 	-0.000615275255185 	-6.43654120555e-22
1.06446176766 	0.00299112209123 	8.77825327343e-22
1.05459734744 	0.00429782655528 	-9.26879431937e-23
1.04715283094 	0.00433354999622 	5.46959259348e-22
1.04166815042 	0.00355716337463 	6.75567750432e-22
1.03802198926 	0.00259422609283 	-5.28601452093e-24
1.04391502831 	-0.00150008711065 	9.18399583551e-22
1.04883760128 	-0.00202729334727 	7.94578890305e-22
1.05587704604 	-0.00258266258546 	-3.46818727885e-22
1.06577213334 	-0.00294508275006 	-1.21656031952e-22
1.07869171178 	-0.00364432395296 	4.26809993437e-22
1.09570562856 	-0.00467313222101 	1.95449703841e-22
1.11793697959 	-0.00571470949186 	-2.28591429581e-22
1.14219829557 	-0.0125644624512 	5.94786164023e-22
1.16978189467 	-0.0235577129657 	2.01097649964e-20
1.18344066797 	-0.053686158955 	9.14705209791e-22
0.956174320435 	-0.0621502967539 	7.07132568801e-23
0.0836811329613 	-0.142352726823 	1.52504888748e-21
0.0620718307175 	-0.314346113255 	-3.14131942778e-22
0.817281987846 	-0.405498298276 	2.49222528802e-21
1.20152946489 	-0.298459491887 	-2.28256512443e-21
1.15391194272 	-0.158702356953 	3.04113032465e-21
1.12110705071 	-0.0825408890405 	2.71742935343e-20
1.09763577297 	-0.0408117039703 	5.8250988115e-22
1.08356194908 	-0.0203618468508 	2.74325126369e-21
1.07120305703 	-0.00781882143493 	-2.71213703138e-22
1.06126056175 	-0.00185683752004 	-6.95631726523e-22
1.05345394086 	0.00090726143708 	1.40720685612e-22
1.04709907798 	0.00188480854658 	2.87880284135e-22
1.04238086698 	0.00190019199408 	-5.98342005493e-22
1.03892928425 	0.00152460510223 	-4.90008830899e-22
1.04410814776 	0.000601274063681 	-1.21680114763e-21
1.04882311501 	0.00123335667376 	-4.5938201076e-22
1.05550579709 	0.00226456696032 	-1.13288235447e-22
1.06517175119 	0.00413124888025 	-3.4963117614e-22
1.07838791898 	0.00653561795898 	1.83341889832e-22
1.09472174472 	0.0109635766389 	-9.61674603885e-22
1.11686731382 	0.0114600754303 	-9.62816969475e-22
1.148946339 	0.0134678835391 	-1.07827388445e-21
1.19003984558 	0.00951194750632 	2.96203702401e-21
1.23883740883 	-0.0280583387808 	2.86527440463e-22
1.040093081 	-0.0904017890987 	-3.40061021484e-21
0.299164779859 	-0.37897637808 	-2.13183881714e-21
0.178212528488 	-0.548812317374 	-8.36237748911e-22
0.727437166487 	-0.468377282834 	2.63136061022e-21
1.02421042648 	-0.308161816032 	-2.15280084519e-21
1.04130040207 	-0.160081342793 	1.0006716738e-21
1.06342494856 	-0.0833666373145 	2.65073128254e-21
1.06758616723 	-0.0425050161036 	-7.67354567304e-22
1.06582110766 	-0.0200656885966 	9.57866456417e-22
1.06324989506 	-0.00976067562465 	9.76907866959e-22
1.05736642643 	-0.00359053434829 	-1.36723592174e-21
1.05163524158 	-0.000812363491768 	2.65598850853e-22
1.04647438611 	0.000375316866309 	6.17339365497e-23
1.04249279116 	0.000673453140207 	6.44436542134e-22
1.03936108589 	0.000653896436246 	2.79124825947e-22
1.0430805309 	0.00231791952819 	1.473269074e-21
1.04733886382 	0.00443269660486 	-2.93118439262e-21
1.05329445084 	0.00660045355502 	1.67531518806e-21
1.06165732543 	0.011054175019 	7.27559457798e-24
1.07320974327 	0.0155428410916 	2.48542822315e-21
1.08855706596 	0.0220374881244 	-6.10096646378e-22
1.1099590547 	0.0328619521767 	-2.17611027118e-21
1.14263755143 	0.0447383914701 	1.25556126078e-22
1.19389253801 	0.0623677451071 	1.48088265747e-21
1.26733227813 	0.0708651847347 	1.29636539454e-21
1.18985099487 	0.0597557545747 	-9.59467680666e-21
0.622205945862 	-0.186574963692 	1.7275356218e-22
0.263838670095 	-0.436989070189 	-4.84829786715e-22
0.505747167509 	-0.409246189194 	4.97312704296e-23
0.869911323704 	-0.19715096305 	-2.16455283672e-22
0.9579019367 	-0.0952178100882 	1.46760785944e-22
1.01458077274 	-0.0491413253363 	3.58473350234e-22
1.04449821551 	-0.0229143463786 	7.60639918113e-23
1.0545619272 	-0.0118105734986 	-1.36233183133e-21
1.05589604477 	-0.00534322434841 	-5.24089445827e-22
1.05392230702 	-0.0027986639098 	1.36295814339e-21
1.05009829788 	-0.00140706857912 	-1.40201781266e-24
1.04584832172 	-0.000346052363086 	-1.43780394811e-21
1.04230970097 	-0.000170339196473 	2.36815392882e-21
1.03938998316 	3.92544026343e-05 	-6.60722607913e-23
1.04125462825 	0.0035680581649 	-1.13405078752e-21
1.04489988062 	0.00686897369937 	5.44790936677e-23
1.04910313807 	0.010106622003 	3.42855309277e-21
1.05584080229 	0.0145303683842 	-1.71163634375e-21
1.0650804295 	0.0221224807913 	2.5855383811e-21
1.07692980515 	0.0334286622948 	-2.89415312107e-21
1.09510052159 	0.0507560205735 	3.2914970381e-22
1.11724607339 	0.074713401442 	-1.55556013209e-23
1.15948371175 	0.113389029016 	3.30515661318e-21
1.22976993281 	0.183423201462 	-4.13372493274e-21
1.18308536283 	0.244389991685 	5.28909006223e-21
0.883228190773 	0.211210785086 	4.53465395967e-21
0.476602408831 	-0.00326951852605 	-2.90722929614e-22
0.419247683407 	-0.155489377512 	2.71725604843e-22
0.707864904839 	-0.0631353287371 	-5.02724347966e-22
0.919129934499 	0.0127644355941 	1.05630498256e-21
0.997440203746 	0.00874217027321 	-8.41953586169e-22
1.03792950929 	0.00568046795952 	2.03284325212e-24
1.0516446122 	0.00258930154644 	1.99755954018e-22
1.05527213589 	0.000665372988273 	-1.52165762754e-21
1.05317406277 	-7.62189849905e-05 	1.4001086644e-21
1.04914266565 	-0.000588398849198 	-2.23654013367e-22
1.04530145409 	-0.00147567561422 	-2.54549865914e-21
1.04215673444 	-0.000923950822891 	-2.21846007772e-23
1.0392536035 	-0.000555202180739 	5.14850536367e-22
1.03870331111 	0.00437784303272 	9.39512411536e-22
1.04166630729 	0.00749134937397 	-5.41998777388e-22
1.04449578128 	0.0109870513396 	-3.85396424431e-22
1.04886808318 	0.016740720516 	2.81179158921e-22
1.05528478327 	0.0256178239776 	1.77115796011e-22
1.06201334289 	0.0383420399518 	1.06914275507e-21
1.07135341388 	0.0599516436161 	1.60330539774e-22
1.0810261163 	0.0890006085791 	-8.23849815592e-23
1.09665880067 	0.138972583828 	-1.89627093624e-22
1.12831365492 	0.230727215301 	1.53061612175e-22
1.10280220163 	0.33579590167 	-1.69673617575e-21
0.933871561869 	0.405610222797 	-1.63170916572e-21
0.646395933319 	0.334332038922 	-4.92315840898e-22
0.518280842855 	0.214199182857 	-3.25433670207e-22
0.647258495975 	0.145582029871 	-2.99367045107e-22
0.925373628673 	0.119487298776 	-1.27564451703e-22
1.03044201809 	0.0747268838147 	4.34568633696e-23
1.05660699238 	0.0323208869412 	1.21914852689e-22
1.06167315421 	0.015497238036 	9.70931360081e-23
1.06013540284 	0.00500241766046 	3.04583082423e-22
1.0553208417 	0.00101820455475 	3.11030769163e-22
1.05043247883 	-0.000807911943624 	2.0580644932e-22
1.04510698471 	-0.00124514937421 	-2.48175884017e-22
1.04184586868 	-0.00143746612795 	-7.77242966518e-22
1.03862405715 	-0.00141683088567 	-5.25560931151e-22
1.03600037192 	0.00451502761104 	-2.54343295364e-21
1.03763477218 	0.00710914442666 	8.37938479842e-22
1.04019768253 	0.010715137142 	5.81122116527e-24
1.04269068953 	0.0161818844764 	6.74415863079e-23
1.0451542035 	0.0245234330161 	-4.62136590876e-22
1.04530313383 	0.0359912864244 	-2.47821785378e-22
1.04500039549 	0.0571987584587 	9.35257001724e-22
1.04035360788 	0.0856875339582 	2.93993087286e-23
1.02269459713 	0.137730514811 	4.21299264714e-23
1.01407664222 	0.212546828778 	-1.1298711941e-22
0.984926182154 	0.334332147994 	-7.29438554097e-22
0.880483703749 	0.421432771906 	7.43169671071e-24
0.690445194722 	0.455903823733 	-3.64455091515e-22
0.611250879171 	0.4278457545 	2.17986856833e-22
0.732137213484 	0.329628049404 	6.21140003678e-23
1.01197972977 	0.173913065463 	1.30528221354e-23
1.11991063292 	0.108502161719 	-1.81917886007e-23
1.10399282517 	0.0355488414279 	3.11996943579e-23
1.07993980824 	0.0160708494388 	8.44817420135e-23
1.06949162822 	0.00416044115574 	1.72703329323e-22
1.05880931281 	-0.00104903872768 	-1.35208881053e-22
1.05146633945 	-0.00212554816326 	3.82149734061e-23
1.04543305322 	-0.00306203054852 	8.63321723121e-25
1.04067470119 	-0.00228158173423 	6.1393937027e-22
1.03796851363 	-0.00224726435926 	1.49732119265e-22
1.03369108473 	0.00342830967642 	-5.26910468297e-22
1.03479203572 	0.00573594435868 	-5.57015598829e-22
1.03561000459 	0.00862246767759 	1.76284456352e-22
1.03621503199 	0.0127062556886 	1.24461205107e-23
1.03493362147 	0.0185807360398 	1.48417307813e-22
1.03058984935 	0.0272424668956 	2.50721778734e-22
1.02321921239 	0.0417911590434 	1.35857634575e-23
1.00491064883 	0.0650015051778 	-1.18773115384e-22
0.97039307521 	0.10296903858 	7.10583597435e-23
0.926696377053 	0.163616889089 	2.45516363842e-23
0.870158647174 	0.259215980109 	-7.84378974448e-23
0.766884773506 	0.373910393866 	0
0.667800087204 	0.431965439537 	-7.66019415954e-36
0.694118842938 	0.39073419003 	-1.21439557193e-24
0.89602774654 	0.255435915733 	-3.2249125669e-22
1.12225369938 	0.114347789935 	8.44419993134e-23
1.18534254544 	0.0463457329014 	2.92064268143e-22
1.14046391248 	0.0146347833993 	-7.75663764922e-23
1.09794291925 	0.00195304229918 	2.93710598696e-24
1.07586276694 	-0.00303689371641 	1.20560421717e-22
1.06223626176 	-0.00650919122893 	1.05338407658e-22
1.05207161907 	-0.0052270813405 	1.54219862359e-23
1.04537654531 	-0.00481820625357 	1.0773896696e-22
1.04026387197 	-0.00361387137026 	-3.65404856234e-22
1.03684727007 	-0.00201301391276 	-3.36726465519e-22
1.03237044658 	0.00262411392677 	0
1.03319466334 	0.00411342686912 	0
1.03364859966 	0.00560835893851 	0
1.03318585486 	0.00752057128207 	0
1.03031578989 	0.010312946452 	0
1.02334931297 	0.0138037596292 	0
1.00954433464 	0.0200020641951 	0
0.981014198292 	0.0323057455982 	0
0.931681459805 	0.051505263205 	0
0.858558263462 	0.0858025707339 	0
0.775006835696 	0.155859086881 	0
0.700472063562 	0.222528420771 	0
0.690638043727 	0.226540354359 	0
0.808755853384 	0.14791388914 	0
1.02495216391 	0.0247717467452 	0
1.19173129811 	-0.0433881316166 	0
1.20481021235 	-0.0427249788355 	0
1.14284048928 	-0.0313008023966 	0
1.0981990557 	-0.0214138508209 	0
1.07566720403 	-0.0162991805897 	0
1.06053432194 	-0.0137106036495 	0
1.05009812592 	-0.00944179986159 	0
1.04364512263 	-0.00738036413481 	0
1.03868849772 	-0.0051596326497 	0
1.03547396137 	-0.00312505552283 	0
1.03140464368 	0.00165042061554 	0
1.03241163979 	0.00222695078954 	0
1.03312829791 	0.00227821091687 	0
1.03285156145 	0.00159519088034 	0
1.0302676331 	-0.000374263480958 	0
1.02371413233 	-0.00486610844677 	0
1.0080409355 	-0.0127457170304 	0
0.976701782945 	-0.0255926541825 	0
0.919178352184 	-0.0413614815376 	0
0.825186068292 	-0.0491254642413 	0
0.740581526049 	-0.0332313075602 	0
0.706102976058 	-0.0331173815363 	0
0.755958312138 	-0.070902259604 	0
0.909977861319 	-0.134748366919 	0
1.08290332449 	-0.184412735937 	0
1.17536486044 	-0.163640827749 	0
1.16576592321 	-0.107098482299 	0
1.11577546237 	-0.0661393106755 	0
1.08333530782 	-0.0426232280204 	0
1.06701275618 	-0.0287654960362 	0
1.05456864922 	-0.0201212903099 	0
1.04578871919 	-0.0136596846018 	0
1.04051084574 	-0.00967493499752 	0
1.03619079481 	-0.00642793346246 	0
1.03352176064 	-0.003989804046 	0
1.03093862319 	0.000862483306875 	0
1.03243838043 	0.000766855147199 	0
1.03407799854 	-0.00031637305769 	0
1.03566423575 	-0.0030635093486 	0
1.03615743395 	-0.00895178986077 	0
1.03517439422 	-0.0206041970069 	0
1.02923201166 	-0.0409382868141 	0
1.00831585593 	-0.0795165097495 	0
0.951710558542 	-0.131067376579 	0
0.84699384774 	-0.17843859799 	0
0.761151501114 	-0.209226245574 	0
0.740674360146 	-0.241168942552 	0
0.796147575992 	-0.275951400721 	0
0.930152704988 	-0.292685198996 	0
1.05424458533 	-0.271791264461 	0
1.10654310684 	-0.20463638452 	0
1.10248421073 	-0.129636181282 	0
1.07910926036 	-0.0807181897372 	0
1.06302227114 	-0.0534943579202 	0
1.05391322867 	-0.035472531966 	0
1.04613186897 	-0.023642539155 	0
1.04023385635 	-0.01602048256 	0
1.03644290919 	-0.0107919504344 	0
1.03323113377 	-0.00701169012415 	0
1.03126197808 	-0.00433555025867 	0
1.03098232994 	0.000521044236559 	0
1.03328956407 	0.000153817396888 	0
1.03648187749 	-0.00137149168988 	0
1.04095723965 	-0.00479244194141 	0
1.0467423749 	-0.0112477927663 	0
1.05478124011 	-0.0243998340046 	0
1.06644849387 	-0.0465199690534 	0
1.06674595518 	-0.0906402764846 	0
1.01739266916 	-0.161332676119 	0
0.901826414623 	-0.236371794582 	0
0.802886735488 	-0.292264033019 	0
0.774473515588 	-0.330827641215 	0
0.808430509179 	-0.3555338048 	0
0.903143747324 	-0.348436208925 	0
0.98611509711 	-0.28968658977 	0
1.02308694721 	-0.205325242068 	0
1.03756803982 	-0.133590289117 	0
1.03959626836 	-0.0844319106064 	0
1.03926729483 	-0.0552259998887 	0
1.03793088279 	-0.0357625309105 	0
1.03581314715 	-0.0232741184727 	0
1.03361526442 	-0.0155141710358 	0
1.03172478935 	-0.0102570748292 	0
1.02994775187 	-0.00666998975397 	0
1.02873930797 	-0.00411571545713 	0
1.03112996455 	0.000665491006885 	0
1.0342676855 	0.000569386193695 	0
1.03908634954 	-0.000232782919411 	0
1.04590411748 	-0.00244892085842 	0
1.05631169792 	-0.00594981170935 	0
1.07180658105 	-0.0141178458979 	0
1.09745022322 	-0.0266731877029 	0
1.12408667801 	-0.0514254224917 	0
1.09982789425 	-0.108120337189 	0
0.980150564812 	-0.196779501325 	0
0.852970763785 	-0.280458569626 	0
0.801312912079 	-0.329864483328 	0
0.808995307299 	-0.349940823765 	0
0.857044721835 	-0.327776229351 	0
0.904384552037 	-0.256640152242 	0
0.943391725982 	-0.177789495094 	0
0.978523548941 	-0.117356510561 	0
0.99943379486 	-0.0741599260078 	0
1.01309177781 	-0.0463414047234 	0
1.02098150823 	-0.0285666229882 	0
1.02510457596 	-0.0180620996499 	0
1.02693752137 	-0.0117109625595 	0
1.02725291214 	-0.00773314524718 	0
1.02690961511 	-0.0050928841055 	0
1.02640714566 	-0.00315714930284 	0
1.03094412521 	0.00127783614113 	0
1.03441244424 	0.0018432168347 	0
1.0398844091 	0.00261008422981 	0
1.04733760419 	0.00288918180417 	0
1.05943348748 	0.00379910425732 	0
1.07724785075 	0.00353482700213 	0
1.1059021494 	0.00465180395299 	0
1.14852789775 	0.00770849316715 	0
1.16191511661 	-0.00397640842626 	0
1.07708340372 	-0.0566830227693 	0
0.938693551088 	-0.144617014945 	0
0.843711659509 	-0.212579543815 	0
0.805997902051 	-0.235132930395 	0
0.808234869391 	-0.209856923103 	0
0.833415086808 	-0.154075326636 	0
0.880829346509 	-0.102006502909 	0
0.933076685732 	-0.0619820882684 	0
0.968192495611 	-0.0361682838211 	0
0.992526094991 	-0.020948772435 	0
1.00868878727 	-0.012079265485 	0
1.01794432711 	-0.00771181988083 	0
1.02266851415 	-0.00511220080082 	0
1.02453594255 	-0.0035820497513 	0
1.02503627368 	-0.00248217255817 	0
1.02492484978 	-0.00160081251567 	0
1.02992677605 	0.00227736676483 	0
1.03304850282 	0.00364987982722 	0
1.03807395138 	0.00589221588675 	0
1.04474345131 	0.00860963562731 	0
1.05577961773 	0.0132269342762 	0
1.07137943677 	0.0197682575727 	0
1.09444247354 	0.031209912301 	0
1.13295249971 	0.0526167652904 	0
1.16379310169 	0.0816673351287 	0
1.12676789126 	0.0926328137056 	0
1.01832453171 	0.0580980436198 	0
0.899381235452 	0.0101300194433 	0
0.815182042716 	-0.011563604341 	0
0.784219171342 	-0.00982836283587 	0
0.799030104426 	0.00300292256094 	0
0.84964650321 	0.0173640512838 	0
0.912558647477 	0.0276535802449 	0
0.958909478973 	0.0265704166497 	0
0.989185062633 	0.0183005672205 	0
1.00816737736 	0.0108719424863 	0
1.01827108669 	0.00557184352822 	0
1.02292659594 	0.00258252711081 	0
1.02456571753 	0.00092504080781 	0
1.02486706236 	0.000188779168601 	0
1.02459815805 	-6.43079992706e-05 	0
1.0281706639 	0.00309752742564 	0
1.03061206029 	0.00511257749756 	0
1.03461747667 	0.00827115763404 	0
1.03976497177 	0.0126656279757 	0
1.04807667566 	0.0197468819376 	0
1.05921807416 	0.0307996353256 	0
1.0735387724 	0.048161403604 	0
1.096761034 	0.0774045590835 	0
1.12059778028 	0.123683357881 	0
1.1023122606 	0.171915035726 	0
1.02651859517 	0.197792241059 	0
0.921411436223 	0.199580633613 	0
0.831816006867 	0.18932304918 	0
0.795403124554 	0.170348703615 	0
0.805500753771 	0.14957733649 	0
0.853747159198 	0.133330890305 	0
0.923010405861 	0.114703090316 	0
0.977916717471 	0.0858972243538 	0
1.00858866513 	0.0536375400164 	0
1.02215742783 	0.0305279971832 	0
1.02675884821 	0.0167416062298 	0
1.02776897719 	0.00891531088366 	0
1.02717591901 	0.0044807637181 	0
1.02620739678 	0.00210806180851 	0
1.02521955679 	0.000969416722699 	0
1.02621383965 	0.00317992136643 	0
1.02789452729 	0.00535971325346 	0
1.03048526855 	0.00880617614731 	0
1.03346307015 	0.013988407158 	0
1.03785997535 	0.0224091569888 	0
1.04323156866 	0.0360432305896 	0
1.04810277594 	0.0572096931408 	0
1.05522155161 	0.0894867977094 	0
1.06423877344 	0.138828047457 	0
1.045360799 	0.199748587912 	0
0.987037807205 	0.254519411382 	0
0.90834880468 	0.285004624112 	0
0.843892799727 	0.284766504052 	0
0.822054604309 	0.264752806338 	0
0.834384568359 	0.235385235195 	0
0.884185731435 	0.201759665827 	0
0.959631126059 	0.161596502914 	0
1.01986679651 	0.110874365099 	0
1.04484240588 	0.065284416605 	0
1.04532521639 	0.0370146234883 	0
1.0400042889 	0.0207302624944 	0
1.0352418081 	0.0115291845242 	0
1.03134576856 	0.00611641025822 	0
1.02844751129 	0.0030464732808 	0
1.02635754561 	0.00146727771156 	0
1.02439918086 	0.00247325150185 	0
1.02523110412 	0.00426448743001 	0
1.02615890667 	0.00721391185768 	0
1.02648802014 	0.011851977828 	0
1.02616280501 	0.019733402755 	0
1.02458166895 	0.0329729674124 	0
1.01998021517 	0.0545342681969 	0
1.0141000569 	0.0851082293979 	0
1.0078736115 	0.130161142529 	0
0.979948263322 	0.190083748365 	0
0.934035958449 	0.251990153865 	0
0.886221615189 	0.294683434149 	0
0.850637312459 	0.301941057102 	0
0.845448571042 	0.286234891909 	0
0.866974536591 	0.255731732486 	0
0.927294232222 	0.20990830273 	0
1.01463054315 	0.150313994363 	0
1.07400216798 	0.0887004827699 	0
1.08277203284 	0.0487496058522 	0
1.06712892916 	0.0283424122503 	0
1.05242951484 	0.0161683369282 	0
1.04236304445 	0.00943222195642 	0
1.03550766007 	0.00522529634505 	0
1.03077248253 	0.00279439345738 	0
1.02761470971 	0.00141386848597 	0
1.02306779893 	0.00120268742882 	0
1.02318360766 	0.00207243193169 	0
1.02276003981 	0.00361863336566 	0
1.02083768848 	0.00602648023353 	0
1.01638869751 	0.0104279714472 	0
1.00816769238 	0.0182899969971 	0
0.995410876255 	0.032872112808 	0
0.979568302626 	0.0539235597505 	0
0.958692817243 	0.0872183134633 	0
0.91926924209 	0.135042044557 	0
0.878964077097 	0.186805035368 	0
0.856246533243 	0.233134513143 	0
0.849506954987 	0.251888164444 	0
0.866845190382 	0.241661490729 	0
0.910969420467 	0.203694893442 	0
0.990932719222 	0.140640644057 	0
1.08114381112 	0.0764359289648 	0
1.12043229687 	0.032703964033 	0
1.10539067345 	0.0164917739366 	0
1.0788591861 	0.0104930625549 	0
1.05948698695 	0.00602071206191 	0
1.04656242267 	0.00376340607789 	0
1.03814231672 	0.00209828510982 	0
1.03233130834 	0.0012293658694 	0
1.0285766168 	0.000662981748725 	0
1.02270062677 	-0.00027012856493 	0
1.02267379123 	-0.000649807754243 	0
1.02195996841 	-0.00120565420772 	0
1.01948154611 	-0.00230690303546 	0
1.01360862469 	-0.00389478566773 	0
1.00197075267 	-0.00596470506196 	0
0.983927515142 	-0.00629006955684 	0
0.960193113428 	-0.00251260297168 	0
0.926651108182 	0.0116104723637 	0
0.87900287889 	0.0361611684358 	0
0.83918664957 	0.0600574646951 	0
0.82742105592 	0.0833151834775 	0
0.845819842415 	0.0967858629309 	0
0.895639354358 	0.0914249653887 	0
0.969980870939 	0.0592294263179 	0
1.05657404011 	0.00829876385334 	0
1.12350485468 	-0.0234330959743 	0
1.13385173155 	-0.0255967929752 	0
1.10558779152 	-0.015575387323 	0
1.07847153005 	-0.00867884414752 	0
1.0596566561 	-0.00540266868053 	0
1.04669562818 	-0.00312388448879 	0
1.03832556155 	-0.00198775508483 	0
1.03242730331 	-0.0010957754908 	0
1.02871016606 	-0.000584898345649 	0
1.02354305981 	-0.00160010916278 	0
1.02413521854 	-0.00313651457977 	0
1.02443803158 	-0.00571584841344 	0
1.02367251387 	-0.010161828215 	0
1.02024207818 	-0.0176235725561 	0
1.01080401412 	-0.0298282207316 	0
0.99168260405 	-0.047362262451 	0
0.961930892389 	-0.0641682607465 	0
0.919487464424 	-0.0720271562919 	0
0.868985235682 	-0.0738359392331 	0
0.832519706901 	-0.0790380336473 	0
0.823076372182 	-0.0871297370081 	0
0.847618149656 	-0.0933353617545 	0
0.912512995048 	-0.0957128210112 	0
1.00015311668 	-0.101946277026 	0
1.07664808915 	-0.109265083877 	0
1.11599157318 	-0.0964923400385 	0
1.11264823101 	-0.0664082263111 	0