1.01415333508 	-0.00782897830787 	-1.24358215456e-21
1.01555345638 	-0.0122672781022 	-9.5716280033e-22
1.01725361863 	-0.0172893180756 	3.7400571114e-22
1.01929739396 	-0.023280363672 	-1.89217598809e-23
1.02130268215 	-0.0304213879505 	-3.89118279694e-22
1.02274863709 	-0.0391206115768 	-2.25103138214e-22
1.02260493039 	-0.0493107690912 	-2.54609957588e-22
1.01887894474 	-0.0598023489965 	-1.35168434681e-21
1.0096974331 	-0.0724311184496 	1.97176432628e-20
0.990329904279 	-0.0796524228302 	1.54932507765e-21
0.961792433943 	-0.0756181662515 	6.08743554965e-23
0.931445660743 	-0.0515040945588 	1.97222691345e-21
0.916371650857 	-0.00818640660046 	-3.86379589287e-24
0.928512512178 	0.0360151860549 	2.21071138476e-22
0.95651981971 	0.0620887754267 	-1.54007699982e-21
0.983722840412 	0.068947265853 	1.81920663622e-21
1.00278773558 	0.0646146765329 	1.86212375176e-20
1.01274286203 	0.0545460757126 	-1.48404862613e-21
1.01755267485 	0.0462683176022 	-1.51714103078e-21
1.01887700361 	0.0375728338186 	3.185832508e-22
1.01848724198 	0.0297956243758 	7.61094977239e-22
1.0174099624 	0.023185105932 	-1.81277467608e-23
1.01611889256 	0.0174599901381 	-3.98544557463e-22
1.0149460721 	0.0125262399228 	9.24850311229e-22
1.01393994538 	0.00801679951109 	9.2911322201e-22
1.01849469365 	-0.00815337851181 	4.06472743427e-22
1.02041289074 	-0.0127627514143 	8.27002098593e-22
1.02299342133 	-0.0182040584606 	4.50127820603e-22
1.0261640548 	-0.0247094273227 	-1.13933518251e-22
1.029744252 	-0.032732932754 	5.93597554194e-22
1.03314076829 	-0.0430007194081 	-2.50041909582e-22
1.03519334259 	-0.0560034032699 	4.25163950073e-22
1.03387904653 	-0.0727971218375 	1.6084694604e-22
1.02482383239 	-0.0934911987669 	-5.6846439651e-22
1.00094069619 	-0.114052189231 	-2.47094342118e-21
0.953085843815 	-0.124648619556 	-3.63721965004e-21
0.884534191284 	-0.0959836185659 	9.96904105618e-21
0.844820342039 	-0.0093981659101 	1.66316076078e-22
0.879846496575 	0.0781648571423 	9.66957791677e-21
0.944537184286 	0.109936095658 	-8.35527918112e-21
0.990774752102 	0.103610175818 	-2.15214211159e-21
1.01478601296 	0.0869552940246 	-4.90860066148e-22
1.02526555328 	0.069575661272 	-3.12617060155e-22
1.02836580482 	0.0549674429413 	-7.04371773021e-22
1.02812197043 	0.0432220891031 	3.51363759602e-22
1.02635693183 	0.0335976300857 	-7.96024432993e-22
1.02406296622 	0.0257378505484 	1.39588653645e-22
1.02183980963 	0.0191850026527 	-5.8759100445e-22
1.01992236854 	0.0135488285901 	-8.24947044849e-22
1.01844028578 	0.00868852905011 	-8.67205352315e-23
1.02283635701 	-0.00810614858395 	8.51138929347e-24
1.02541477206 	-0.0125143795682 	2.9804688205e-22
1.02895399603 	-0.0179995305779 	-2.48314642551e-22
1.03347685553 	-0.0245802296975 	-5.78696781846e-25
1.03906804026 	-0.0328636993224 	1.39223441479e-22
1.0453905403 	-0.0439267239053 	5.85422882346e-23
1.05159188935 	-0.0590712045791 	-1.63888685105e-22
1.05578166988 	-0.0805253615909 	-5.81213592085e-22
1.05362565842 	-0.111110600197 	-2.50874949737e-23
1.03489363362 	-0.155154016434 	8.01660026639e-22
0.972134641509 	-0.208432126086 	1.33518021889e-20
0.813721280428 	-0.218140084808 	-2.02126796611e-21
0.66755479921 	-0.0108787725865 	-2.64960360573e-21
0.806837903432 	0.196865993459 	-3.75296393638e-21
0.958323493854 	0.192797007541 	1.15968802197e-20
1.01933927594 	0.146224417586 	-6.8538058014e-22
1.03944453529 	0.107839811532 	-3.37200862353e-23
1.04432782979 	0.0809134512026 	9.42189909168e-22
1.0432485801 	0.0614067618435 	3.19644145702e-22
1.03978663553 	0.0469965736587 	-1.1376218227e-22
1.03561500527 	0.0358679978875 	-1.65364347232e-22
1.0315856338 	0.0271238359171 	1.51833686034e-24
1.02813240444 	0.0200281934915 	3.43809313063e-22
1.0253168685 	0.0139854027505 	-3.86393788572e-22
1.02319210271 	0.00897348320266 	-4.05239183785e-22
1.02705580775 	-0.00754162944433 	2.17773670963e-23
1.0302337555 	-0.0116308924108 	1.55025334748e-23
1.03467042292 	-0.0166243073915 	4.63856095342e-23
1.04065180867 	-0.0226645623055 	3.27121874968e-23
1.04838369249 	-0.0303010940987 	3.74327069339e-23
1.05814892904 	-0.0408718631947 	1.44086164407e-23
1.06991545702 	-0.0560456227399 	-2.92123674463e-22
1.08321281268 	-0.0789890667144 	-3.99053760882e-22
1.09642637361 	-0.115665618416 	5.34954206667e-22
1.10417910603 	-0.179249858507 	-1.23975025371e-21
1.08709323994 	-0.304935926402 	9.36365900221e-22
0.873739112229 	-0.600913163638 	-5.14672013622e-22
0.861956919853 	0.566620072663 	1.055093952e-21
1.06327063515 	0.287653213645 	-1.06548289851e-21
1.0805663639 	0.173803460522 	-1.07962671464e-21
1.07696862084 	0.117966841901 	-3.01167808106e-22
1.06922616543 	0.0852591442301 	5.56749411456e-22
1.06084242536 	0.0633296855767 	1.31783125986e-22
1.05284305598 	0.0476854106902 	1.45280676118e-23
1.04569534731 	0.0359297363124 	1.57533870116e-23
1.03959975919 	0.0269675273444 	3.10303127796e-24
1.0346659706 	0.0197649049057 	-6.12281214222e-23
1.03085831022 	0.0137757524354 	-4.28200583731e-24
1.02805252124 	0.00879041520098 	-5.03094429253e-24
1.03090437776 	-0.00645017229048 	3.30455933622e-24
1.03452297619 	-0.0101467680533 	-3.02944544209e-23
1.0396746845 	-0.0142134414382 	-3.50209881889e-23
1.04690396782 	-0.0190948106947 	1.19107402232e-24
1.05651775697 	-0.0251982303181 	-8.02977270602e-23
1.06953618547 	-0.0335228149098 	-5.91279454919e-24
1.08694699458 	-0.0456255466522 	-7.32406043987e-24
1.11022399682 	-0.0645529843216 	3.66312796793e-23
1.142130025 	-0.0963192646922 	-5.92154360451e-22
1.1884266864 	-0.152385228131 	-2.63642069968e-22
1.27544902304 	-0.254474597302 	2.2684151578e-22
0.0416862305455 	0.0013610687848 	-1.87677006785e-21
1.23624706666 	0.239768682133 	-2.2660368565e-22
1.15306678278 	0.154268553909 	3.01326734831e-22
1.11669096082 	0.108366562502 	7.83100677809e-22
1.09477485096 	0.0795136807079 	-2.25989973332e-22
1.07878551253 	0.0593596710881 	-2.58675212834e-24
1.06605877768 	0.0446175931222 	4.6410501202e-24
1.05572751628 	0.0335046090131 	5.57330382235e-23
1.04750586725 	0.0250188527325 	-1.54124382842e-25
1.04102873568 	0.0182628591065 	1.77788801965e-23
1.03620992826 	0.0127890974512 	1.29753506634e-23
1.03274769436 	0.00797832598689 	4.95101084102e-24
1.03395267157 	-0.00543934976423 	-2.72476962038e-24
1.03787179246 	-0.00808020889324 	4.98568251879e-23
1.04353935407 	-0.0110992624962 	1.82933743369e-23
1.05146813402 	-0.0143434257936 	1.40000337909e-23
1.06217058447 	-0.0181005142054 	1.56476015274e-22
1.07727064348 	-0.022682979981 	2.49444417285e-22
1.09840514124 	-0.0288534340588 	-1.45057753633e-21
1.12887913131 	-0.0383558493305 	4.92750706996e-22
1.17403409361 	-0.0544804192428 	1.88937316799e-21
1.24328081005 	-0.0825938542505 	-1.15314922135e-20
1.33420126498 	-0.1189760299 	3.03040796584e-20
0.100094146261 	-0.0488640721367 	1.49721729154e-21
-0.000203201400986 	-0.0102143897894 	-4.25496436703e-22
0.165939113044 	-0.000498555045017 	-1.21894143051e-23
1.26844406734 	0.0990853829975 	-3.08347013509e-20
1.18936517429 	0.100192365568 	9.0812230496e-21
1.14379896935 	0.0834209752153 	8.3077850872e-22
1.11531552512 	0.0653898557498 	2.39683792938e-22
1.09424550503 	0.0499868786667 	1.18366802105e-21
1.077866523 	0.037845220302 	-2.0620542478e-22
1.06474343332 	0.0284454079661 	-1.67079979186e-22
1.0545985732 	0.0212286335955 	-7.83345460539e-24
1.04673207728 	0.0155311591918 	-5.83585294989e-24
1.04090288285 	0.010790459391 	-3.34442339909e-23
1.03679046212 	0.00693628447932 	-8.36193606682e-23
1.03637071068 	-0.00411238616704 	1.54736959887e-23
1.04022894474 	-0.00587043573572 	-3.8792634637e-22
1.04601878973 	-0.00776170266404 	4.64487857395e-22
1.05398076571 	-0.00927850147398 	-3.89022609561e-24
1.06475722037 	-0.0103899469683 	-4.03154456627e-22
1.07980633563 	-0.0106390422603 	-4.21524493336e-22
1.10122000679 	-0.00952936823495 	1.21251656979e-21
1.13311483965 	-0.00636489064877 	4.30905247326e-21
1.18184959842 	-0.00107880861915 	1.08764637574e-21
1.2617939463 	0.00283286541608 	4.25637220758e-21
1.33822610042 	0.00166479682222 	3.37823611104e-21
0.396629084618 	-0.148049344768 	-4.69755318925e-21
-0.161251825645 	-0.274420332557 	-3.31498907292e-21
0.172615946784 	-0.167190200305 	-5.70364439513e-21
1.18147262897 	0.004308392693 	-2.25199217227e-21
1.18610500524 	0.0575796316825 	-2.57532211959e-21
1.15579806967 	0.0576739063897 	-9.94137427098e-23
1.12895688389 	0.0477214126926 	-3.74423711913e-21
1.10604405536 	0.0370665184901 	-1.1460574463e-21
1.0870868563 	0.0282220970119 	2.91544913313e-22
1.07201175814 	0.0212537866733 	3.64359833542e-22
1.06029060978 	0.0158582710959 	3.64425293284e-24
1.05131227836 	0.0117159419032 	-4.18051939474e-22
1.044675387 	0.00807285052155 	3.57052449286e-22
1.04016994511 	0.00528460740878 	3.05166806313e-22
1.03809797394 	-0.00275550282958 	-2.92881098976e-22
1.04172115631 	-0.00382334216973 	-8.02067311385e-22
1.04715241652 	-0.00471290197937 	-5.52440934817e-22
1.05449934418 	-0.00482067051724 	8.43978377079e-23
1.06408209271 	-0.0036777321305 	-7.84223241209e-22
1.07709422328 	-0.000191815715896 	5.44289516268e-22
1.09482777737 	0.00756287227144 	-1.37122173501e-21
1.1204330568 	0.0227742857081 	-9.58168308114e-23
1.16465608465 	0.0512917575372 	-3.19376043562e-21
1.22797186395 	0.0979651863027 	-3.99189418181e-21
1.30813961112 	0.173117524212 	9.64318795385e-21
0.681821643484 	0.0947688763459 	1.61522228828e-20
-0.120530102849 	-0.0749680257264 	6.77304601325e-22
0.0509574530195 	-0.117956267316 	5.5898793299e-21
1.05237120865 	0.00781449534331 	-9.90906812581e-22
1.17744672643 	0.046377972561 	-1.62165271522e-21
1.16415702004 	0.0381670385412 	-1.35700787572e-21
1.13808276458 	0.0290479515779 	2.81252507094e-22
1.11411322007 	0.0217956291388 	1.60603975372e-21
1.09367856036 	0.0163316281871 	-5.90570753216e-22
1.07671971681 	0.0124410486627 	8.95780663864e-22
1.06405417412 	0.00933939579056 	-1.00347248022e-22
1.05438468295 	0.00709393416321 	5.3527001538e-22
1.04733077186 	0.00493961757836 	7.020801736e-22
1.04256133151 	0.00337071744374 	8.39982860843e-24
1.03909145264 	-0.00170706606035 	8.37603020547e-22
1.04254497211 	-0.0021943134687 	7.2272506549e-22
1.04726552639 	-0.00235897218122 	-3.10122982794e-22
1.05357891593 	-0.00163398380303 	-1.26276095636e-22
1.06116346043 	0.000764144944112 	4.07472364445e-22
1.07060159708 	0.00627135687374 	1.62039396087e-22
1.08197700355 	0.018070911762 	-2.312489522e-22
1.09395572274 	0.0383091101918 	7.49568183789e-22
1.11395849965 	0.0800560477998 	2.62553046367e-20
1.13917647172 	0.158259752132 	2.58292956374e-21
1.17742538584 	0.304507637124 	9.1198572157e-22
0.780833735034 	0.425797606084 	4.94381573428e-21
0.0392511047732 	0.366136050374 	-2.08783862724e-22
0.11699101695 	0.192155826229 	1.25586444144e-21
0.996886786496 	0.0703776895494 	-5.14178387905e-22
1.20193661576 	0.0489368265868 	1.13993382116e-21
1.17707832831 	0.0188093479389 	2.1267576231e-20
1.1454117806 	0.00880321048149 	4.11914781752e-22
1.11935218101 	0.0031719886785 	2.73438425542e-21
1.0960858309 	0.00291580051301 	-3.11876674622e-22
1.07861231783 	0.00249894205862 	-7.33041778329e-22
1.0655486182 	0.00220816122802 	1.35690938564e-22
1.05566453841 	0.00209967353939 	3.17998387224e-22
1.04865077045 	0.00172990251569 	-6.4787487081e-22
1.04374625552 	0.001316543983 	-5.32689145696e-22
1.03963053512 	-0.00081457682536 	-1.04268147383e-21
1.04282041794 	-0.000957749677982 	-4.21583544259e-22
1.04687160002 	-0.000865008978077 	-6.80176055067e-23
1.05210221626 	1.40890724649e-07 	-3.01583559067e-22
1.05775290588 	0.00219085956143 	2.75584724636e-22
1.06337117012 	0.00770572773725 	-9.65869878021e-22
1.06533266684 	0.01661434736 	-7.66733364964e-22
1.06530501552 	0.0370743924464 	-9.24450010696e-22
1.05712227858 	0.0753775193224 	2.45459931361e-21
1.0281282952 	0.148332609142 	2.19899634909e-22
0.994206968481 	0.293251730551 	-3.42889715473e-21
0.668268696775 	0.460361649979 	-2.50211815817e-21
0.149942760842 	0.553113313043 	-8.18063778019e-22
0.36173160744 	0.357988810731 	2.55268724636e-21
1.10217769087 	0.0596201112398 	-2.55897829568e-21
1.25373746301 	0.0067846305931 	1.06202588448e-21
1.19309523744 	-0.0205846804318 	3.16697787714e-21
1.14978644039 	-0.019955284752 	-8.37641878244e-22
1.11655601714 	-0.0151597665949 	1.1887061106e-21
1.09386040995 	-0.0133040775969 	9.39922626582e-22
1.077718084 	-0.00781342922942 	-1.58965418016e-21
1.06458191105 	-0.00489660077403 	3.05998812295e-22
1.0550505273 	-0.00271056202239 	1.02300616358e-22
1.04847360538 	-0.00149286080334 	7.14806204614e-22
1.0438394067 	-0.000730683920235 	3.15587735953e-22
1.03973058635 	-0.000150325562475 	1.23427240206e-21
1.04278938562 	-9.01681070099e-06 	-2.4130207505e-21
1.04650057255 	9.10823627443e-06 	1.37277777521e-21
1.05094456492 	0.000851535835674 	5.98686619181e-24
1.05500554256 	0.0013985826695 	1.66497853246e-21
1.05740781181 	0.00315313628739 	-4.00247638988e-22
1.05597916276 	0.00784368709814 	-1.09245469077e-21
1.04576838358 	0.0155687802803 	4.92589429663e-23
1.01293952342 	0.0369574660571 	3.28948848264e-22
0.953264241832 	0.0733813310447 	1.68818836824e-23
0.843772107594 	0.163184906081 	5.46527703254e-22
0.434231619651 	0.390526865922 	3.10479269137e-23
0.273549309475 	0.360304199116 	-5.00809109628e-22
0.709002786632 	0.0801804243772 	1.69110738085e-22
1.21692557625 	-0.107258166269 	-1.05207193695e-20
1.26740412636 	-0.0982939396576 	1.07974360302e-21
1.18702095508 	-0.0746684705659 	1.32956116618e-21
1.13972203169 	-0.0515208628759 	1.43710110806e-22
1.10720247691 	-0.0363139732762 	-2.60419999485e-21
1.08672902206 	-0.0239498874764 	-7.75584757585e-22
1.07197148438 	-0.0166454259162 	2.03095670369e-21
1.06077690977 	-0.0115684164609 	-1.29128794855e-24
1.05261704027 	-0.00686745385358 	-1.73644110178e-21
1.04685710245 	-0.0045697030965 	2.8464415525e-21
1.04274193889 	-0.00239978822718 	-8.65739458191e-23
1.03963960874 	0.000543839580071 	-8.90028843497e-22
1.04274699716 	0.000941210290958 	-2.32617188459e-24
1.04609768569 	0.00140127150776 	2.46370847135e-21
1.05037060658 	0.000266189853943 	-1.08342162782e-21
1.05509314265 	-0.000663859804274 	1.47665971221e-21
1.05803656996 	-0.00202358595761 	-1.44265064603e-21
1.05573876552 	-0.00596792397668 	1.49646577097e-22
1.0437340763 	-0.0124184290171 	3.30223624541e-25
1.00569861484 	-0.023134922288 	-1.02240185143e-21
0.922318256527 	-0.0390905893558 	1.28069212577e-21
0.67739632999 	0.0324569497222 	-1.3115696032e-21
0.410454225441 	0.0777523146348 	-6.48793018042e-22
0.509003714027 	-0.0948539917395 	-3.09502992536e-22
0.913372447253 	-0.279705230304 	-3.51741129861e-21
1.17850604015 	-0.275890194805 	1.42781282479e-22
1.21035659413 	-0.198111725282 	-3.91550116802e-21
1.14460840385 	-0.120853636583 	3.05120575523e-21
1.11052629078 	-0.0788576621449 	2.85153433175e-23
1.09045852888 	-0.0526176346663 	4.83335126065e-22
1.07420304073 	-0.0344142454846 	-3.04205979748e-21
1.06316773389 	-0.0225062458847 	2.44670228797e-21
1.05468434191 	-0.0146756037482 	-4.56441307745e-22
1.04824342882 	-0.0100290758715 	-3.51564432219e-21
1.04431903713 	-0.00678996266887 	-8.27145801779e-23
1.04088036191 	-0.00354929859285 	6.61170292934e-22
1.03896093222 	0.00153441050809 	7.13954040004e-22
1.04241637604 	0.00157249258009 	-3.66465226706e-22
1.04592516868 	0.00143386316115 	-2.10674366575e-22
1.05168095878 	0.00112288231362 	2.52215625998e-22
1.05749062077 	-0.000948883718301 	2.47360584734e-22
1.06415032554 	-0.00516811430842 	3.79258718959e-22
1.06790475767 	-0.0164158720172 	9.22030754907e-23
1.06813935711 	-0.0350043585566 	1.0853853942e-22
1.04936014052 	-0.0845010066397 	8.82455605919e-23
0.942245640084 	-0.136864579926 	-8.79918710167e-23
0.649022527106 	-0.199337624561 	3.45071768809e-22
0.523028623083 	-0.28200309429 	2.62803716162e-22
0.656661572723 	-0.382691916077 	-4.72412941975e-22
0.93002244421 	-0.425304625902 	1.50945641558e-21
1.08438029487 	-0.34116337852 	1.68988129319e-21
1.10260338382 	-0.228205633878 	1.30411087925e-22
1.08132955983 	-0.139149944338 	-1.11279051812e-22
1.0729614812 	-0.0890327696637 	-6.43194116113e-23
1.06599444021 	-0.0592242684116 	1.30104194586e-22
1.05882483254 	-0.0378833927423 	9.08437318643e-22
1.05326162827 	-0.0250928654392 	2.952500839e-22
1.04765930863 	-0.0163145741274 	2.03926133454e-22
1.04372284477 	-0.010685300272 	-4.32159791648e-22
1.04116597107 	-0.00726883638704 	-1.08450266979e-21
1.03840581945 	-0.00422101987748 	-6.94830999982e-22
1.03823851242 	0.00243444434564 	-1.8559446509e-21
1.04111331458 	0.00263924963155 	6.03284454805e-22
1.04609087439 	0.00358201680609 	-8.25769587534e-25
1.05248565231 	0.00298349582986 	4.55572403842e-23
1.06083369652 	0.00261165455866 	-1.80715376033e-22
1.07314997505 	-0.00162282228546 	1.25527804088e-22
1.08596735611 	-0.0132192337811 	1.93351069763e-22
1.11599002506 	-0.0287658537909 	2.65521998767e-23
1.14327496935 	-0.098351253323 	-1.18337124165e-23
1.04594073965 	-0.167765764626 	-6.97839327813e-23
0.758522157017 	-0.335741494381 	-5.85644998002e-22
0.613348868546 	-0.447517616788 	4.25922874872e-24
0.679593541471 	-0.469541910523 	-3.44037757571e-22
0.86375609907 	-0.417225542932 	5.04898425695e-22
0.958184037933 	-0.319502587209 	2.70008462267e-22
0.989779888468 	-0.20128083366 	-1.23766116208e-23
1.00926216838 	-0.129310444683 	2.42067270383e-23
1.03283901719 	-0.080856412524 	3.78969181521e-23
1.04053072018 	-0.053577517692 	7.92123958493e-22
1.04264421815 	-0.033723834565 	-2.07433735916e-22
1.04364792676 	-0.0230647327965 	-3.84005486009e-22
1.04169864367 	-0.0152478520476 	5.82798929339e-23
1.03962999781 	-0.0100856688264 	4.78769869225e-24
1.03726397292 	-0.0067248950557 	8.53036133732e-22
1.03576492847 	-0.00429504596138 	1.59248938447e-22
1.03695349483 	0.00231578208948 	-3.68160541445e-22
1.04042277209 	0.00415157134207 	-3.95835577802e-22
1.04563063347 	0.00569093649519 	1.21261012924e-22
1.05242314599 	0.00664102957998 	1.19343232125e-23
1.06296619258 	0.00907402835645 	1.12166171981e-22
1.07747928307 	0.00701720209829 	1.6918106597e-22
1.10041437841 	0.00519034043626 	8.4450922945e-24
1.14604260736 	-0.00131956222983 	-2.1271391409e-22
1.19981158828 	-0.0223352867515 	4.82198697997e-22
1.15417046117 	-0.0709121109092 	2.03874626722e-22
0.934239219358 	-0.201539831745 	-5.36549884266e-22
0.709918987414 	-0.348836258552 	0
0.654449262808 	-0.403748597865 	-5.47132071265e-36
0.737623562338 	-0.350851322095 	-8.67386323074e-25
0.843074365964 	-0.236969213154 	6.68626242103e-24
0.910432252027 	-0.145428705159 	-3.79198373167e-23
0.961246278961 	-0.0912046511349 	-3.28144968047e-24
0.999840872691 	-0.057128934592 	-2.33274654175e-23
1.02044215551 	-0.0363756842386 	7.65121437559e-24
1.02918867281 	-0.02386583031 	1.90874582117e-22
1.03419420868 	-0.0164776141165 	1.36235705876e-22
1.03582592692 	-0.0112943082998 	1.93931618134e-23
1.03544398028 	-0.00777971857565 	1.62126557486e-22
1.03469230242 	-0.00522355255287 	-5.17525374152e-22
1.0336519195 	-0.00312720428261 	-4.87399063096e-22
1.03539146607 	0.00344978225435 	0
1.03855960521 	0.00570808384725 	0
1.0434535273 	0.00827624940736 	0
1.04967939 	0.0109733836226 	0
1.05992524693 	0.0161395381271 	0
1.07472571276 	0.0204282078416 	0
1.09594286339 	0.0286520732423 	0
1.13880458091 	0.0432605638285 	0
1.2015394383 	0.0647446379015 	0
1.19863778226 	0.0851022461813 	0
1.0513307667 	0.0430453380638 	0
0.834418147106 	-0.0701962179742 	0
0.695173735685 	-0.156523775807 	0
0.688278507635 	-0.168271806648 	0
0.757202811899 	-0.116202255608 	0
0.848036095598 	-0.0566971110457 	0
0.928125056228 	-0.0319127738553 	0
0.979895733878 	-0.0202393870953 	0
1.00954884376 	-0.0128287501231 	0
1.02387532347 	-0.00964049150072 	0
1.03075359425 	-0.00785232386918 	0
1.03353659584 	-0.00607766429938 	0
1.03395898321 	-0.00476988515038 	0
1.03339082597 	-0.00361805331279 	0
1.03249647977 	-0.00234088137008 	0
1.0332869152 	0.00424003049323 	0
1.03582481864 	0.0068296969219 	0
1.03989835476 	0.0103412160545 	0
1.04479487779 	0.0148201109171 	0
1.05290583076 	0.0217989628572 	0
1.06420527721 	0.0316639974156 	0
1.07857968025 	0.0472758050752 	0
1.10683010849 	0.0725173493969 	0
1.15117735801 	0.117842216796 	0
1.16231127188 	0.184025918642 	0
1.08183077086 	0.221464473017 	0
0.918337042051 	0.191709314292 	0
0.763234510228 	0.138250279652 	0
0.707412169098 	0.0944809081485 	0
0.73850637862 	0.0819299133322 	0
0.827982267098 	0.0840822645631 	0
0.926565637636 	0.0645471729376 	0
0.983808840741 	0.0387256032339 	0
1.0130844193 	0.0195255255083 	0
1.02685001761 	0.00855267934491 	0
1.03216473004 	0.00236424077043 	0
1.03399525063 	-0.000550200690916 	0
1.03382785155 	-0.00170213727233 	0
1.03282453431 	-0.00189501975794 	0
1.03166189295 	-0.00146123845143 	0
1.03092237502 	0.00444547044973 	0
1.03270737364 	0.00717237432397 	0
1.03556135899 	0.0110315841228 	0
1.0388853712 	0.016471200479 	0
1.0438505628 	0.0243055493376 	0
1.05015835748 	0.036686448047 	0
1.05732218438 	0.0554817971933 	0
1.06894165195 	0.0834131077193 	0
1.0850207042 	0.133556320309 	0
1.08567432695 	0.210166119223 	0
1.03951616907 	0.285645837322 	0
0.922911677274 	0.319075819692 	0
0.795928724314 	0.30947447692 	0
0.745162404714 	0.276347737576 	0
0.76893610068 	0.24090708406 	0
0.862628543332 	0.200405357641 	0
0.970535325749 	0.143239487551 	0
1.02360660512 	0.0843869811288 	0
1.0387608366 	0.0430111668262 	0
1.04035497074 	0.0216884550604 	0
1.03915898242 	0.00945022042349 	0
1.03734562569 	0.00333638608257 	0
1.03504114451 	0.000449275904034 	0
1.03298840795 	-0.000699713639787 	0
1.03127608734 	-0.000825173891697 	0
1.02838695238 	0.00403792635475 	0
1.02940669723 	0.00651842920162 	0
1.03079425162 	0.00996758068153 	0
1.03212543869 	0.015087801075 	0
1.03323195584 	0.0227193131366 	0
1.03367874435 	0.0350866497965 	0
1.03266002652 	0.0546586314245 	0
1.02874912053 	0.084257371032 	0
1.02056338867 	0.133065482667 	0
1.00045946071 	0.203204585755 	0
0.965017715003 	0.290082300366 	0
0.889811956767 	0.354144122663 	0
0.805052545216 	0.364490927374 	0
0.777445087483 	0.341114675193 	0
0.813138711982 	0.299990671763 	0
0.924472087348 	0.235170383477 	0
1.04316015399 	0.152464619525 	0
1.08448616819 	0.0820988174628 	0
1.07560979021 	0.0420543081892 	0
1.05968995351 	0.0218631666838 	0
1.04959468539 	0.00983416060565 	0
1.04254138561 	0.00407622962604 	0
1.03743149438 	0.000967421097576 	0
1.03380355858 	-0.000355078375247 	0
1.03130679253 	-0.000622722502634 	0
1.02618064168 	0.00289048200496 	0
1.02654679527 	0.00462489817071 	0
1.02658539848 	0.00694222420819 	0
1.02574874439 	0.0104260662117 	0
1.02292627653 	0.0160739795035 	0
1.01714497723 	0.0254211723342 	0
1.00667703707 	0.0417605411555 	0
0.98941114158 	0.0676621569944 	0
0.963508338979 	0.107821911239 	0
0.922599450199 	0.164448962605 	0
0.881826517856 	0.239515072036 	0
0.840898936165 	0.311762788489 	0
0.803821981394 	0.336483683771 	0
0.806419241776 	0.315032929037 	0
0.874153483678 	0.255507851042 	0
1.01323727818 	0.163116949578 	0
1.1245184693 	0.0801278988426 	0
1.13465226871 	0.0349067785414 	0
1.1011554086 	0.0181618713374 	0
1.07401153594 	0.00914797296457 	0
1.05762368218 	0.00318647820934 	0
1.04665616494 	0.000905626247401 	0
1.03960348605 	-0.000614286864148 	0
1.03455526931 	-0.000974092466651 	0
1.03135610981 	-0.000879541295609 	0
1.02493506711 	0.00125588974371 	0
1.02502652977 	0.00186525963658 	0
1.02444912079 	0.00251257247965 	0
1.02241086339 	0.00326125044194 	0
1.01729728846 	0.00449973064465 	0
1.00717234668 	0.0065117550905 	0
0.989363993937 	0.011646461926 	0
0.962514382183 	0.0214003593516 	0
0.923190401609 	0.0408902676065 	0
0.866399823694 	0.0737137419967 	0
0.817203252732 	0.116765392832 	0
0.795247794237 	0.163431649973 	0
0.804787895863 	0.183719674874 	0
0.859505951508 	0.157952366685 	0
0.968526583297 	0.0879213039197 	0
1.10409828597 	0.00958972902731 	0
1.17148692892 	-0.0244360966372 	0
1.14687946747 	-0.021900078326 	0
1.10346998376 	-0.0127165145731 	0
1.07618360366 	-0.00853974871954 	0
1.0587979633 	-0.00670532720418 	0
1.04696896352 	-0.00468329256301 	0
1.03970400942 	-0.00364106414775 	0
1.03431204813 	-0.00242055296159 	0
1.03094871583 	-0.00160479328722 	0
1.02485412666 	-0.000211093363093 	0
1.02526252447 	-0.000706915923021 	0
1.02519524399 	-0.00191320984714 	0
1.02396782648 	-0.00438652433975 	0
1.01990352118 	-0.00887477271176 	0
1.01062079233 	-0.0168135046954 	0
0.992026560236 	-0.0289909691482 	0
0.960610186807 	-0.0444102613102 	0
0.910744515178 	-0.0533747309049 	0
0.844936506413 	-0.0516697926455 	0
0.794693814228 	-0.0465479484224 	0
0.781764211386 	-0.0458707787238 	0
0.81902789772 	-0.0522245773612 	0
0.912689945392 	-0.0733502767426 	0
1.03216288956 	-0.108621844594 	0
1.12990198553 	-0.122396317205 	0
1.15605585496 	-0.0962567871688 	0
1.12356026321 	-0.0603143742542 	0
1.08871860815 	-0.0364030327075 	0
1.0681933373 	-0.023261808577 	0
1.05377307258 	-0.0153513148395 	0
1.04353752508 	-0.0100229885119 	0
1.0373060562 	-0.00675163015152 	0
1.03257101584 	-0.00419628015492 	0
1.02966331096 	-0.00258972915087 	0
1.02563702122 	-0.00110538171741 	0
1.02691484467 	-0.00238284060321 	0
1.0283694004 	-0.00504197143053 	0
1.02983047968 	-0.00993628481683 	0
1.03024514081 	-0.0185514268426 	0
1.0281245655 	-0.0337842447209 	0
1.01737872488 	-0.0597938793681 	0
0.987275750881 	-0.0976454918171 	0
0.929652493964 	-0.133628151578 	0
0.857715126144 	-0.15924828598 	0
0.809563048451 	-0.181525321427 	0
0.799916506734 	-0.206688460919 	0
0.835201694135 	-0.22736977256 	0
0.92233543744 	-0.234247284948 	0
1.02163372804 	-0.221483901043 	0
1.09085525639 	-0.183360590821 	0
1.10619039174 	-0.128668677864 	0
1.08535245829 	-0.0808117330397 	0
1.06668464032 	-0.0508730136207 	0
1.05497122012 	-0.0325680734195 	0
1.04533345515 	-0.0207716073717 	0
1.03810974904 	-0.0133227538398 	0
1.033552033 	-0.00864036337071 	0
1.02994901407 	-0.00535214873687 	0
1.02775507361 	-0.00322633864287 	0
1.02681957252 	-0.00145041174713 	0
1.02925126727 	-0.00300926972339 	0
1.03269201539 	-0.00601781725781 	0
1.0375136826 	-0.0112970515867 	0
1.04388358424 	-0.0201658444056 	0
1.0521617307 	-0.0360322286175 	0
1.0563874711 	-0.0633714183142 	0
1.03415351619 	-0.110506612297 	0
0.972043854324 	-0.166524890511 	0
0.892778322691 	-0.21230467115 	0
0.841229568055 	-0.249277515259 	0
0.827225076804 	-0.279116394499 	0
0.845604985771 	-0.298423320021 	0
0.904346035811 	-0.296049117598 	0
0.975036929118 	-0.259781426694 	0
1.02898054039 	-0.200149553792 	0
1.04872086733 	-0.137986720797 	0
1.04389373249 	-0.0893788364333 	0
1.04067065019 	-0.0572626030121 	0
1.03833338718 	-0.035801426727 	0
1.03475255031 	-0.0220881060525 	0
1.03162141301 	-0.013717871457 	0
1.02934221253 	-0.00857581996078 	0
1.02720701864 	-0.00520976952343 	0
1.02577806886 	-0.00307489006697 	0
1.02799694996 	-0.00122165526503 	0
1.03140337983 	-0.00240614570918 	0
1.0365278248 	-0.00445090524302 	0
1.04399454887 	-0.00804158405539 	0
1.05518067685 	-0.013612329437 	0
1.07184496541 	-0.0239386401452 	0
1.09190602714 	-0.0405411501181 	0
1.08990088907 	-0.0756715809613 	0
1.03267301486 	-0.13706193844 	0
0.940620811028 	-0.202074994774 	0
0.874594043747 	-0.253337037576 	0
0.848926731627 	-0.284853889497 	0
0.850185852073 	-0.299254845001 	0
0.879093361768 	-0.287879454422 	0
0.919024123011 	-0.241266543781 	0
0.962960434895 	-0.179269511963 	0
0.993583519506 	-0.121379697608 	0
1.00398235922 	-0.0789577717457 	0
1.01295797388 	-0.0501556031528 	0
1.01992373173 	-0.0299118098246 	0
1.02336315205 	-0.0177392406555 	0
1.02488487362 	-0.0106000011835 	0
1.0252063277 	-0.00642355270591 	0
1.02468097284 	-0.00378768028247 	0
1.02406432913 	-0.00219010195468 	0
1.02874642692 	-0.000311408021742 	0
1.03258026916 	-0.000570888635453 	0
1.03852648649 	-0.000912227728114 	0
1.0470963008 	-0.00177885273952 	0
1.06036993748 	-0.00264486770177 	0
1.08010592317 	-0.00485879318121 	0
1.10830424828 	-0.00672134110811 	0
1.12989411138 	-0.014771760517 	0
1.0984501515 	-0.0486191769064 	0
1.0102281516 	-0.108806061143 	0
0.924797169419 	-0.173416393747 	0
0.872035177862 	-0.211973607551 	0
0.846780402537 	-0.220641035413 	0
0.846260824939 	-0.200101751763 	0
0.86509386467 	-0.157199123178 	0
0.905923869082 	-0.111198246916 	0
0.948136455208 	-0.0687410912532 	0
0.972806074616 	-0.0403874860507 	0
0.991096176777 	-0.0234383148749 	0
1.00563270227 	-0.0124144308824 	0
1.01507999285 	-0.006946213902 	0
1.02015630702 	-0.00401240730228 	0
1.02237003559 	-0.00245032254502 	0
1.02297139262 	-0.00141949934559 	0
1.02294748463 	-0.00084914726171 	0
1.02858233161 	0.000993979952939 	0
1.03223024566 	0.00180060847363 	0
1.03801234107 	0.00318218115784 	0
1.04613338029 	0.0050606175198 	0
1.05876492429 	0.00854863831043 	0
1.07675811653 	0.0137358156505 	0
1.10266792046 	0.0236006817353 	0
1.13194624385 	0.0396169641058 	0
1.12770217577 	0.0490455127107 	0
1.06867548943 	0.0302665074155 	0
0.981985109848 	-0.0115087592593 	0
0.900342852217 	-0.0390378965283 	0
0.843774241788 	-0.0437835823384 	0
0.822080285723 	-0.034867105013 	0
0.833141282314 	-0.0205595499877 	0
0.873331134729 	-0.00523385533869 	0
0.922583154222 	0.0120255153368 	0
0.959004010777 	0.0197435820259 	0
0.984601635913 	0.0177133608831 	0
1.00327974509 	0.0125900829081 	0
1.01472065955 	0.00765601672674 	0
1.02020946615 	0.00441771566328 	0
1.02238767645 	0.00239269540299 	0
1.02293693387 	0.00128474481018 	0
1.02286555876 	0.000600505583418 	0
1.0274185782 	0.0020950852261 	0
1.03043855056 	0.0037014503996 	0
1.03523265069 	0.00640714256938 	0
1.0417399067 	0.0105124190288 	0
1.05173986548 	0.0174391899147 	0
1.06526927817 	0.0283288924738 	0
1.08269063055 	0.0457733018174 	0
1.10374778039 	0.0751239248972 	0
1.10869092972 	0.110903025313 	0
1.07378572391 	0.133137541021 	0
0.999184550109 	0.136735886895 	0
0.911597784095 	0.137446316299 	0
0.84781872186 	0.135075157558 	0
0.824962093682 	0.124776367554 	0
0.834664112684 	0.111398821411 	0
0.871016725839 	0.100327949035 	0
0.922653514073 	0.0921613711154 	0