1.01389592292 	-0.00785468359003 	-8.08116040773e-22
1.01505538938 	-0.0121905939829 	-6.34925127221e-22
1.01643962598 	-0.0169952659397 	2.69701056337e-22
1.01806426019 	-0.0225796350401 	-2.81686724137e-23
1.0196032131 	-0.029095012007 	-2.61843541126e-22
1.0205733136 	-0.0368636564304 	-1.79662724668e-22
1.01996124915 	-0.0457680610212 	-2.00426368015e-22
1.01604859585 	-0.0549228065802 	-1.14334931542e-21
1.00684160716 	-0.0658073888202 	1.71891098883e-20
0.987949455767 	-0.0716009755718 	1.43793700611e-21
0.960121226773 	-0.0664619430019 	7.67025674969e-23
0.930639651944 	-0.0417164732163 	1.92748319777e-21
0.916401286305 	0.00183275665897 	-4.97981190267e-24
0.929400319209 	0.0458246174844 	2.05123640556e-22
0.958270894053 	0.0712271267697 	-1.63704896222e-21
0.986169323595 	0.0769495240094 	1.9782883861e-21
1.00567662051 	0.0711589167628 	2.13644009547e-20
1.01557562269 	0.0593275690648 	-1.74505590487e-21
1.02018432328 	0.0497315370568 	-1.85337724127e-21
1.02102119149 	0.0397666016967 	3.93507287088e-22
1.02014884638 	0.0310784602958 	1.00280713595e-21
1.01859690589 	0.0238544696697 	-3.94624384679e-23
1.01688518843 	0.0177382161711 	-5.19640929668e-22
1.01539615488 	0.0125949146616 	1.25368644411e-21
1.01415424851 	0.00798672546934 	1.26322404409e-21
1.01823181458 	-0.00837668884697 	2.33899230995e-22
1.01982464489 	-0.0129988683933 	4.95447236339e-22
1.02192515328 	-0.0183397225478 	1.93439830702e-22
1.02446410172 	-0.0245405681987 	-7.48466277737e-23
1.0272385368 	-0.0319925613858 	4.12858091433e-22
1.02975986682 	-0.041271339139 	-1.63649735604e-22
1.03104538199 	-0.0528534800712 	2.56806279794e-22
1.02919425962 	-0.0677099560071 	1.18626261848e-22
1.02019681623 	-0.0862760627893 	-4.61985653776e-22
0.997041072078 	-0.104893263183 	-2.07673448256e-21
0.950497183454 	-0.114157291272 	-3.26763145317e-21
0.883333784751 	-0.0849016895045 	9.72484842944e-21
0.844821405158 	0.00185609611889 	1.66996229185e-22
0.881151248951 	0.089245183302 	1.00171442323e-20
0.947247685177 	0.120397764726 	-9.15455278453e-21
0.994780801771 	0.112696733552 	-2.55856551091e-21
1.01949173722 	0.0940621843127 	-6.02926400635e-22
1.02995837645 	0.0745292612457 	-3.99999660789e-22
1.03249417937 	0.0580106801226 	-9.84985359244e-22
1.03145438406 	0.0448656373198 	4.79940838396e-22
1.02880268401 	0.0342742278951 	-1.05455204766e-21
1.02570069398 	0.0258621167052 	1.89715470648e-22
1.02284915571 	0.0190193021031 	-9.11848711956e-22
1.02045675442 	0.0132996846649 	-1.16011191412e-21
1.01865264681 	0.00845353321857 	-7.23231493623e-23
1.02271726446 	-0.00861482105845 	5.21314504494e-24
1.02488545213 	-0.0132521443036 	9.25120380805e-23
1.02780153406 	-0.0188545221141 	-4.19408833087e-23
1.03147654997 	-0.0253802682246 	9.25119271149e-25
1.03591884448 	-0.033368697056 	6.28578172018e-23
1.04085182988 	-0.043631529583 	-5.34222609266e-23
1.04560757556 	-0.0572771831151 	6.12956462664e-23
1.04869672095 	-0.0763835838482 	-5.2617101272e-23
1.04640912205 	-0.104001217022 	5.90585896979e-23
1.02892485627 	-0.145119159579 	5.29671936761e-22
0.968871793884 	-0.197099838367 	1.09826381077e-20
0.812421336579 	-0.206888096232 	-1.98689375155e-21
0.667576594255 	0.000374320222063 	-2.66061693599e-21
0.80824224911 	0.208106037283 	-3.90738417687e-21
0.961763137383 	0.204095994724 	1.3900291093e-20
1.02546949002 	0.156123148976 	-9.42180809032e-22
1.04676082136 	0.114756018098 	-7.32002676809e-23
1.0514253001 	0.0848501963498 	1.65846097924e-21
1.04917622516 	0.0630224037603 	6.20407672678e-22
1.04424577873 	0.0471613030347 	-2.38464945788e-22
1.03867399466 	0.0352725013913 	-2.51673674775e-22
1.03350378294 	0.0262540104613 	3.51312284162e-24
1.02920932383 	0.0191235631382 	5.96818490824e-22
1.0257850543 	0.0132098773963 	-6.34581031474e-22
1.02325255263 	0.00844916646623 	-6.45685502673e-22
1.02727233605 	-0.00842731687671 	-1.69600883183e-24
1.03000614753 	-0.0130012394713 	3.71258390917e-23
1.0337551973 	-0.0184523419609 	1.31788196308e-23
1.03870099682 	-0.0248870503926 	9.40306959461e-23
1.04494679986 	-0.0327508737591 	1.17691316081e-22
1.0526820031 	-0.0430322524413 	6.9039774674e-23
1.06203164349 	-0.0569662987477 	-4.84837911112e-22
1.07301311186 	-0.0772020586921 	-4.54556282683e-22
1.08517981694 	-0.109417846217 	8.47212614761e-22
1.09505909835 	-0.167764267674 	-1.91332484697e-21
1.08415988435 	-0.291184106561 	1.72831060288e-21
0.874455567467 	-0.592446203859 	4.81460809093e-22
0.861282872871 	0.575332675193 	1.56324718502e-21
1.06652036345 	0.301466437527 	-1.7364990912e-22
1.09000550759 	0.185074600722 	-9.2924184619e-23
1.08835078712 	0.123870243274 	-5.30770575443e-23
1.0794049093 	0.086733762847 	3.63583235202e-22
1.06861423642 	0.062168039382 	-8.28334385417e-23
1.05817580948 	0.045365425791 	7.73506151412e-23
1.0490041302 	0.0333778055516 	1.22233308308e-22
1.04143894842 	0.0246756521027 	7.44751917831e-23
1.03548901826 	0.0178943165613 	-9.95280158005e-23
1.03100176983 	0.0123649104531 	2.34041889034e-23
1.02776519565 	0.00788406187163 	-1.48609029819e-23
1.03167990029 	-0.00769901701055 	2.77660980428e-23
1.0349302131 	-0.0121679188073 	-6.84741360268e-23
1.03945655572 	-0.0171233268725 	-7.00838393586e-23
1.04560433215 	-0.0230263837137 	1.76434075225e-24
1.0535148766 	-0.0301743738616 	-1.06006955873e-22
1.06385275161 	-0.0392263864268 	-7.41136113853e-24
1.07744080044 	-0.0510274847685 	-8.51617768279e-24
1.09605246292 	-0.0673949408558 	4.2227492752e-23
1.12400202612 	-0.0926340963547 	-6.78705243095e-22
1.17143130313 	-0.137573942854 	-3.15894778492e-22
1.27224744774 	-0.229129305763 	2.7064666003e-22
0.036460885082 	0.00147228906475 	-1.58045872088e-21
1.24029840102 	0.265380316882 	-1.79193302312e-22
1.17069205314 	0.168648108617 	2.34625683801e-22
1.13497258307 	0.111439210221 	6.17613125413e-22
1.10881090424 	0.0762228528563 	-1.75256978826e-22
1.08805579118 	0.053678368428 	-1.9271528017e-24
1.07152547715 	0.0387821585086 	2.11772429426e-24
1.05855547025 	0.0284696058788 	2.55466601582e-23
1.04866687313 	0.0210550882442 	-3.88861846172e-26
1.04114363763 	0.0153466793868 	-2.57081673468e-23
1.03571045605 	0.0107702058541 	-3.36566344571e-23
1.03188551383 	0.00673090811205 	3.73957191287e-23
1.03553871215 	-0.00692386477618 	-6.6164073998e-24
1.03929189876 	-0.0105745892589 	9.42270335526e-23
1.04455939037 	-0.0149483631796 	4.30634701314e-23
1.05166254697 	-0.0199323116661 	1.64937856176e-23
1.06078743482 	-0.0258817691439 	1.87064360586e-22
1.07282785403 	-0.0328965648549 	2.71302875667e-22
1.08862253024 	-0.0409517389243 	-1.53624300471e-21
1.1108151058 	-0.0498324393292 	4.36165166173e-22
1.14502833665 	-0.0588453899976 	1.99297530033e-21
1.20584903245 	-0.0662395350682 	-1.22688694387e-20
1.31424791884 	-0.0664322115731 	3.5320327632e-20
0.172428860061 	-0.0315985364214 	2.04940272351e-21
-0.000391481813836 	-0.00685409338485 	-4.19768035934e-22
0.0928750070173 	0.0244798676147 	1.32442476584e-22
1.29134796651 	0.152271583598 	-2.56344156731e-20
1.22790973984 	0.115195860738 	8.42242107139e-21
1.17273287727 	0.0778929224003 	8.28618914034e-22
1.13292243425 	0.0533335457132 	1.31341528947e-22
1.10354907776 	0.0376799532237 	1.0669500926e-21
1.08197665824 	0.0276033273876 	-1.75528674298e-22
1.06590903345 	0.0207009021522 	-1.1651616134e-22
1.05424223207 	0.0156628062813 	-5.70158318953e-24
1.04560148377 	0.0117144526863 	2.62233718774e-23
1.03939587963 	0.00832052032523 	2.2253295052e-23
1.03512893276 	0.00547956962859 	1.3799099809e-23
1.03890012836 	-0.00561230448797 	3.18995741811e-23
1.04293535597 	-0.0084736645086 	-5.50663031492e-22
1.04879994785 	-0.0120811382621 	6.22823267594e-22
1.05661474827 	-0.0159532440628 	-4.81355496536e-24
1.0664752034 	-0.0205641805002 	-4.54466982868e-22
1.07900944998 	-0.0255274910994 	-4.37906242824e-22
1.0947652512 	-0.0301312794615 	1.2101098324e-21
1.11470327399 	-0.0320494042356 	3.97940400139e-21
1.14194275592 	-0.0261024830015 	1.02728768118e-21
1.18616365247 	0.000532097145717 	3.70252978123e-21
1.24320710289 	0.0737968415141 	3.88031674255e-21
0.37480647651 	0.140826311026 	-5.65549961532e-21
-0.197718119092 	0.19092715961 	-3.12013631723e-21
0.24401112239 	0.142592196824 	-4.72604465226e-21
1.28329611167 	0.0739476771577 	-1.76646539515e-21
1.26250810794 	0.051236812885 	-3.15217713061e-21
1.194594807 	0.0307951207276 	-9.91647920246e-23
1.14615632996 	0.0214820688519 	-4.04871063074e-21
1.11173966661 	0.0165048817136 	-1.11492383983e-21
1.08750003203 	0.0134938231006 	2.69101160945e-22
1.07006627814 	0.0112448364477 	2.95496290816e-22
1.05750865144 	0.00928060528408 	2.32045537151e-24
1.04843215855 	0.0074560071028 	-2.171422344e-22
1.04187579015 	0.00547147395928 	1.50148857816e-22
1.03756802315 	0.00378598613919 	9.76469710032e-23
1.04153290512 	-0.00405640331798 	-4.19399566201e-22
1.04580650395 	-0.0061184326892 	-1.09352053967e-21
1.05202290653 	-0.00870309749651 	-7.22823892913e-22
1.06033246378 	-0.0114038384548 	1.07778920548e-22
1.07051600649 	-0.0147318461956 	-8.80367600219e-22
1.08334993313 	-0.0182093548217 	5.38572315278e-22
1.09739577514 	-0.0211199361713 	-1.30769593617e-21
1.11219304788 	-0.0209330119347 	-8.21223956962e-23
1.12529811133 	-0.00956056134503 	-2.22358076432e-21
1.12873967438 	0.0241393698889 	-2.69814810704e-21
1.08314487963 	0.135342631784 	4.60314114253e-21
0.285292909857 	0.342090139972 	9.4191690141e-21
-0.167190584335 	0.394515405506 	5.6435375152e-22
0.505969456136 	0.167139792029 	1.13578324199e-20
1.29769507622 	-0.0319529052262 	-2.06212096159e-21
1.27620166355 	-0.0344551481252 	-2.51489036262e-21
1.19898679115 	-0.0252026904521 	-2.01302918573e-21
1.14431698453 	-0.0145791546428 	3.1760272387e-22
1.11065760743 	-0.00617475326025 	1.63643135453e-21
1.08707276505 	-0.00124275341302 	-5.74795738854e-22
1.07019085139 	0.00164974616844 	7.36227123318e-22
1.05817368343 	0.00291813824491 	-6.82891941014e-23
1.04947404999 	0.00320155404583 	3.1152106879e-22
1.04319855759 	0.00270962882663 	3.91165340024e-22
1.03907784253 	0.00211290639882 	2.82620034131e-23
1.0432221756 	-0.00233463979819 	1.19828888771e-21
1.04775606905 	-0.00354671977998 	9.93868468174e-22
1.0541176866 	-0.00494137800589 	-3.96740960726e-22
1.06280441885 	-0.00637883511029 	-1.46737203064e-22
1.07332239916 	-0.00847090298299 	4.94836188123e-22
1.0860862823 	-0.0109770574865 	1.94870502366e-22
1.10026945322 	-0.013516778167 	-2.15375784924e-22
1.11063592218 	-0.0176463759199 	5.25504115383e-22
1.11316453885 	-0.0185330445859 	1.57248744742e-20
1.08873274892 	-0.0127786238706 	7.22561376905e-22
0.912390108114 	0.0599033855522 	-6.85966416146e-24
0.10145753138 	0.238145494004 	1.39057212753e-21
0.0362704882659 	0.124443686161 	-5.43589752954e-22
0.79276606524 	-0.125546404431 	2.73887446368e-21
1.28513698276 	-0.204266562812 	-2.61393265513e-21
1.24484061575 	-0.130653994969 	3.37126765214e-21
1.17046558488 	-0.0784505348522 	3.02795503835e-20
1.12638816879 	-0.0444353289908 	6.09844070328e-22
1.10076910734 	-0.026698427161 	2.78320366182e-21
1.08063622315 	-0.0135078772281 	-2.55921882668e-22
1.0666029888 	-0.00649056288074 	-5.62790186979e-22
1.05643926101 	-0.00239249475256 	1.0155218361e-22
1.04886296085 	-0.000391825060924 	2.15013777741e-22
1.0434389877 	0.000443360934171 	-3.63809369918e-22
1.03957621545 	0.000693917728023 	-2.52703024712e-22
1.04401053989 	-0.000383699491666 	-1.51127617566e-21
1.04856895185 	-0.00061360058471 	-5.67226678631e-22
1.05492832834 	-0.000891865965053 	-1.29175141586e-22
1.06391392295 	-0.000914046701394 	-3.88883126236e-22
1.07535430723 	-0.00147484966891 	1.71758715313e-22
1.08833109246 	-0.00144880582258 	-9.85466504364e-22
1.10340649118 	-0.0069446301972 	-8.9046016846e-22
1.11929051472 	-0.014646489207 	-7.34707861545e-22
1.12836014605 	-0.0312734021947 	1.41479298989e-21
1.10485708316 	-0.0746927448967 	-2.0639170678e-22
0.804246257624 	-0.0740164061323 	5.96444985963e-22
0.162470694348 	-0.134693597392 	5.499868904e-22
0.283503557865 	-0.324676769586 	-1.11557834495e-21
0.887596846353 	-0.43054894983 	4.93660025443e-21
1.17893969084 	-0.335916847418 	-3.54650021353e-21
1.14606100664 	-0.195355876904 	1.62691399641e-21
1.1160032215 	-0.11220442881 	3.72055320128e-21
1.09552021278 	-0.0648806064216 	-9.42981214048e-22
1.0799783296 	-0.0363347260017 	9.95415775471e-22
1.07000766615 	-0.0214482989608 	8.78470258768e-22
1.06068157422 	-0.0115968188295 	-1.28261946778e-21
1.05300950946 	-0.00576228547389 	2.07348676274e-22
1.04704905572 	-0.00277588084529 	3.72641180268e-23
1.04268690114 	-0.00121571351624 	3.99042642034e-22
1.03938195791 	-0.000400258330757 	1.50991049517e-22
1.04370073107 	0.00121629496082 	1.81939590012e-21
1.04821764853 	0.00252661506744 	-3.47596548952e-21
1.05433187429 	0.00331234241134 	1.91495377428e-21
1.06292913932 	0.00563983607376 	7.51806014505e-24
1.07449929854 	0.00623783941552 	2.43668617172e-21
1.08891501086 	0.00638769835391 	-5.97713455622e-22
1.10879294982 	0.00693286548519 	-1.74843855161e-21
1.13197936539 	-0.00153333493217 	1.00383691297e-22
1.1696126996 	-0.0189247083848 	7.69349166861e-22
1.17566189281 	-0.0825210887027 	7.48954269647e-23
0.889978462815 	-0.173483793938 	-1.65350667172e-21
0.337032933533 	-0.434213963647 	8.08045732445e-23
0.386931560576 	-0.529074773298 	-3.34653486725e-22
0.825380019596 	-0.464724788734 	6.79325240057e-23
1.02234737007 	-0.332499281253 	-4.98395188421e-21
1.03302329523 	-0.192480499829 	6.69814592129e-22
1.05212811988 	-0.111898781355 	8.24900706939e-22
1.05863145456 	-0.0641966672293 	9.75559069305e-23
1.05979667767 	-0.0365961175024 	-1.75476702592e-21
1.05646158177 	-0.0205455253489 	-5.1846226603e-22
1.0530653929 	-0.0122009420387 	1.34096788431e-21
1.04908024011 	-0.00688772661497 	-1.13953274518e-24
1.04473727677 	-0.00381096441952 	-1.03576360257e-21
1.04139272498 	-0.0021084987032 	1.54234301238e-21
1.03874635622 	-0.000990534476846 	-2.28874437492e-23
1.04247380722 	0.00285542526776 	-1.3778525211e-21
1.04684630602 	0.00542746202067 	7.12752338242e-23
1.05162409333 	0.00785171025466 	3.90441284511e-21
1.05986202354 	0.00989023530986 	-1.82438903374e-21
1.07144999696 	0.0140585131398 	2.62128656331e-21
1.08570835268 	0.0191509855165 	-2.82106430305e-21
1.10943387041 	0.0248183694101 	3.16957101832e-22
1.13691919723 	0.0288609680751 	-6.26247273243e-24
1.20390969114 	0.0292402586552 	2.46239979869e-21
1.245915878 	0.00575372680937 	-3.01076286776e-21
1.05904166971 	-0.0630111942382 	3.74040886151e-21
0.559744316525 	-0.355307351328 	3.03196241888e-21
0.403996262528 	-0.493225843951 	-2.06441920395e-22
0.658964668777 	-0.396915142424 	-4.12133193863e-22
0.867893613259 	-0.230692457088 	-8.63315085024e-23
0.940320872575 	-0.131718125623 	-4.12645965051e-22
0.994474780166 	-0.0782286824465 	2.90835101009e-22
1.02897493203 	-0.04323261753 	1.06948901358e-23
1.04138756426 	-0.0254241777631 	2.35898890757e-22
1.04729097749 	-0.0148064283422 	-1.55313445334e-21
1.04674855632 	-0.00882486829087 	1.27248408744e-21
1.04502283488 	-0.00542109715375 	-2.56491357162e-22
1.04264019825 	-0.00367444326932 	-1.7518684777e-21
1.04020060617 	-0.00212082036636 	1.06085380684e-23
1.03796849539 	-0.00121819333909 	3.02223374813e-22
1.04020202321 	0.00427536319353 	1.17253487868e-21
1.04420163707 	0.00696727186919 	-6.43453633883e-22
1.04823568908 	0.00982890271868 	-4.25112946584e-22
1.05516863903 	0.0147729545926 	3.67818730028e-22
1.06499705498 	0.0211417134358 	2.34632474074e-22
1.07820605396 	0.031565097496 	1.13601751579e-21
1.09837012341 	0.0431939226083 	1.5572400364e-22
1.12157089099 	0.0634000945387 	-1.48773439079e-22
1.18358677006 	0.0909541297494 	-1.66695831198e-22
1.23761282854 	0.141219352252 	2.51270012622e-22
1.15656534395 	0.170679541814 	-2.46132015178e-21
0.845390950818 	0.0763577509238 	-2.39571028049e-21
0.531925008893 	-0.136151827492 	-6.56175082778e-22
0.523668736933 	-0.228766085131 	-2.85001432695e-22
0.733210481063 	-0.10945629336 	-2.71136338645e-22
0.892628192956 	-0.0312914283308 	-1.72663377797e-22
0.966848028258 	-0.016801948875 	-1.10565496284e-23
1.0148623043 	-0.00918520088554 	1.26014353226e-22
1.03476390804 	-0.00563133799202 	8.20479331733e-23
1.04285191535 	-0.00521317211547 	2.33765831768e-22
1.0450054086 	-0.00416364807162 	1.70099392527e-22
1.04363374284 	-0.00318872025272 	8.09557535908e-23
1.04110159668 	-0.00244744059197 	-1.51455615372e-22
1.03926260917 	-0.00210085076068 	-4.41966555837e-22
1.03711683545 	-0.00150624979855 	-2.5464309418e-22
1.03746608872 	0.00510039417329 	-3.26175553504e-21
1.04006998433 	0.00777631098863 	1.07081107009e-21
1.04404420991 	0.0117767452434 	-1.14299156619e-23
1.04951571976 	0.017397647393 	8.36894800692e-23
1.05566035677 	0.0256697417381 	-6.18600380316e-22
1.06487183401 	0.0387590210102 	-3.98376464041e-22
1.07665872594 	0.0578905751824 	1.36033051292e-21
1.08952104316 	0.0879084205905 	3.43675704636e-23
1.12079740242 	0.133835947171 	7.07955960021e-23
1.16426361918 	0.222600931891 	-2.24621747008e-22
1.11100785622 	0.300717223636 	-1.75381268294e-21
0.921418358617 	0.312745464863 	1.61437789526e-23
0.68520998273 	0.227099640402 	-4.8559917102e-22
0.584762038496 	0.122603768943 	-3.36054553515e-22
0.657138553098 	0.0844716135352 	4.08625983585e-23
0.864733866796 	0.0960242189074 	-1.86855359615e-23
0.988429784807 	0.0688279416965 	-1.64421886613e-23
1.02877181257 	0.0295847678376 	5.856044336e-24
1.04367551743 	0.0139718311356 	-4.35507049573e-22
1.04717718316 	0.00472127588696 	2.83135985391e-22
1.04617611684 	5.18437858655e-05 	8.08321710066e-23
1.04412650579 	-0.0014106702576 	2.20682134263e-23
1.04141088575 	-0.00189228166085 	1.96404400092e-23
1.0382859846 	-0.00175961621602 	2.24148447961e-22
1.03639090221 	-0.00162381255807 	9.48526185557e-23
1.03464557193 	0.00453599586122 	-7.08608332576e-22
1.03650232917 	0.00764443474942 	-7.50774207299e-22
1.0388120718 	0.0117997250107 	2.25220864039e-22
1.0415742162 	0.0177917190856 	-1.43244033134e-23
1.0443959144 	0.0258352710561 	2.07787677806e-22
1.04742314785 	0.0388163416738 	5.21319029174e-22
1.05070501161 	0.0586938328832 	4.08341420259e-23
1.05148348492 	0.088038126682 	-5.66197551811e-22
1.05356352353 	0.137634058859 	4.74596161463e-22
1.05680784902 	0.221673355374 	3.27778230077e-22
1.02672042254 	0.322717792516 	-5.39866962329e-22
0.908068830346 	0.391673145036 	0
0.745615805456 	0.40529725313 	-5.52319847002e-37
0.67061413304 	0.369112464827 	-8.75610673204e-26
0.738571091452 	0.299277097065 	4.64349793634e-22
0.910371112683 	0.20590524257 	-3.88154323061e-22
1.04146611537 	0.120343076081 	-3.98637168418e-22
1.06823652804 	0.0599470886609 	5.99526961856e-22
1.06259305787 	0.0250585832908 	-3.73405497776e-23
1.05691787623 	0.0113340010031 	-2.81491937051e-22
1.05177724656 	0.00336676461261 	1.43111581561e-23
1.0466870676 	-0.000170569447319 	6.09496502832e-23
1.04245997366 	-0.00152784239239 	5.29622598762e-23
1.03865125459 	-0.00172049002301 	-8.88828982178e-23
1.03583198677 	-0.00102691116638 	-8.04641392166e-23
1.03243617872 	0.00415688456689 	0
1.03351342696 	0.00680618132 	0
1.03453946344 	0.0102463419262 	0
1.03554282725 	0.0153042361384 	0
1.03528397594 	0.0224020460391 	0
1.03318933243 	0.0336375391567 	0
1.02945551322 	0.0516170003975 	0
1.01789057071 	0.0792427252505 	0
0.996337120873 	0.123638966562 	0
0.970189089533 	0.194445317459 	0
0.934022829315 	0.294452491753 	0
0.843339195374 	0.387626971026 	0
0.73316893618 	0.425412454903 	0
0.706890903907 	0.402500559352 	0
0.814423779419 	0.324390631769 	0
1.01116825095 	0.202970012064 	0
1.12670876138 	0.102743328713 	0
1.11928640326 	0.0474544738843 	0
1.08853933342 	0.0197565916076 	0
1.06911158061 	0.00785488548641 	0
1.05746783974 	0.000622530557866 	0
1.04884746512 	-0.00145407975774 	0
1.04276624555 	-0.00244418651011 	0
1.03834202457 	-0.00228904268417 	0
1.03523561146 	-0.001547447155 	0
1.03053334107 	0.00316573845831 	0
1.03113912238 	0.00496708514715 	0
1.03134123552 	0.00706566817455 	0
1.03077828396 	0.0100434225658 	0
1.02789822461 	0.0145680871564 	0
1.02123955293 	0.0213079413128 	0
1.00892551191 	0.0329639099808 	0
0.984532243785 	0.0534445683828 	0
0.944293633912 	0.0853470655724 	0
0.888941301659 	0.134705857537 	0
0.830282403597 	0.215577264754 	0
0.766941044173 	0.298325214998 	0
0.726810777571 	0.326896627144 	0
0.771660474166 	0.281799660729 	0
0.931621947563 	0.173977057334 	0
1.12363115764 	0.0643638455458 	0
1.18989791778 	0.011624023604 	0
1.14607773208 	-0.00128649429169 	0
1.10043832385 	-0.00351004669118 	0
1.07520126889 	-0.00532681394587 	0
1.05982569237 	-0.00664743428553 	0
1.04911233768 	-0.00517333357969 	0
1.04246550429 	-0.00472977035289 	0
1.03754654174 	-0.00350427770662 	0
1.03434257814 	-0.00235812760446 	0
1.02917334505 	0.00188142027938 	0
1.02969901625 	0.00266901970669 	0
1.02968073484 	0.00319262955004 	0
1.02842727872 	0.00340849241175 	0
1.02431383973 	0.00330198678302 	0
1.01540672458 	0.00223421275036 	0
0.997417483513 	0.000944133292649 	0
0.965553735444 	0.000902407909891 	0
0.913908877446 	0.00549292526693 	0
0.837820969131 	0.0212370346013 	0
0.769791185935 	0.057468112917 	0
0.734952275806 	0.0880389394253 	0
0.758470456389 	0.0827562941283 	0
0.871887332815 	0.0260640650981 	0
1.0430789468 	-0.0606971102313 	0
1.17575107889 	-0.0980271672435 	0
1.18936621377 	-0.0760061284174 	0
1.13492942359 	-0.0478096665202 	0
1.09355684565 	-0.0297078414664 	0
1.07211570253 	-0.0204424084808 	0
1.05742089984 	-0.0148000137788 	0
1.04700919532 	-0.0100908223213 	0
1.04092114663 	-0.00750727568822 	0
1.03603734482 	-0.00498349745398 	0
1.03305345676 	-0.00317896511266 	0
1.02865196482 	0.00064341262273 	0
1.02950683285 	0.000490509845339 	0
1.03012057481 	-0.000539936398966 	0
1.03003540732 	-0.00304730333278 	0
1.02783784702 	-0.00818839046368 	0
1.02216915672 	-0.0179595642892 	0
1.00825768425 	-0.034777921104 	0
0.978669980942 	-0.0626801607846 	0
0.921103754283 	-0.0932864292817 	0
0.833506446328 	-0.115434229561 	0
0.765490869457 	-0.124998044702 	0
0.748018408514 	-0.142866439175 	0
0.799095248242 	-0.17158641312 	0
0.928634099579 	-0.20155693086 	0
1.0646064409 	-0.21649300459 	0
1.14023935833 	-0.180823745847 	0
1.13968111715 	-0.118271494901 	0
1.10213839146 	-0.0727051293888 	0
1.07566181979 	-0.0468257400675 	0
1.06165098132 	-0.0311115950798 	0
1.05065354088 	-0.0208962587962 	0
1.04255167318 	-0.0140610453195 	0
1.03769267432 	-0.00961052806778 	0
1.03361338399 	-0.00616438884732 	0
1.03117047339 	-0.00380371919865 	0
1.02892727581 	-8.1890173651e-05 	0
1.03063925037 	-0.000802753278147 	0
1.03286486199 	-0.00281316744225 	0
1.03573161376 	-0.00692018652338 	0
1.03866126836 	-0.01460931159 	0
1.04172599933 	-0.0291140009432 	0
1.04219814323 	-0.0541752243528 	0
1.02416015835 	-0.100075878806 	0
0.965313884126 	-0.158801353014 	0
0.868370003668 	-0.209999896339 	0
0.795746394552 	-0.247487103803 	0
0.779133075723 	-0.280788582912 	0
0.818988251307 	-0.307508688912 	0
0.921225572732 	-0.310995808362 	0
1.01912605328 	-0.274507190433 	0
1.06776349212 	-0.20434102073 	0
1.0756181508 	-0.133165989603 	0
1.06272911617 	-0.0834928362291 	0
1.05263514365 	-0.0545466343121 	0
1.04642256226 	-0.0356120722268 	0
1.04067514349 	-0.0232222035046 	0
1.03609829653 	-0.0154306243817 	0
1.03306110573 	-0.0102250005707 	0
1.03040011841 	-0.00653929848016 	0
1.02874152571 	-0.00399640988523 	0
1.02948829062 	-0.000152499664654 	0
1.03231178359 	-0.000826886572972 	0
1.03647867675 	-0.002676424105 	0
1.04243550937 	-0.00642715506111 	0
1.05096413985 	-0.0127670789094 	0
1.06352087188 	-0.0252662582128 	0
1.08142598932 	-0.0458040448269 	0
1.08500272395 	-0.0861984409923 	0
1.03228296159 	-0.155627976508 	0
0.92203210714 	-0.230095790441 	0
0.834509868669 	-0.286229699385 	0
0.807968912422 	-0.322984810987 	0
0.827104912249 	-0.343645408831 	0
0.889455946259 	-0.333636560399 	0
0.949649463464 	-0.275370241599 	0
0.989518890886 	-0.197711327118 	0
1.01390712873 	-0.131897744139 	0
1.0217528369 	-0.0840535488873 	0
1.02659351013 	-0.0536546154246 	0
1.02914639867 	-0.0335057845604 	0
1.02952188278 	-0.0210186980709 	0
1.02906096045 	-0.0134847637158 	0
1.02825472329 	-0.0087354900581 	0
1.02715767925 	-0.00558932250542 	0
1.02631476539 	-0.00341173471425 	0
1.02982298425 	0.000282313123107 	0
1.03334950407 	0.000135066293998 	0
1.03872600368 	-0.000446524632026 	0
1.04631677775 	-0.00206349250866 	0
1.05819069905 	-0.0043024443074 	0
1.0761242876 	-0.00970737921703 	0
1.1045025509 	-0.0171052795507 	0
1.13333652927 	-0.0322124456577 	0
1.10947844107 	-0.0772851720108 	0
1.00164699569 	-0.15497261286 	0
0.888191741061 	-0.236487593518 	0
0.833641534818 	-0.286968023117 	0
0.825635028812 	-0.30388154806 	0
0.84713186158 	-0.279212796002 	0
0.877539818884 	-0.216825425941 	0
0.919270062379 	-0.152267311269 	0
0.960427106903 	-0.0994291389795 	0
0.984375231131 	-0.0621682397569 	0
1.00158770807 	-0.0380362273841 	0
1.01341723573 	-0.0223336667143 	0
1.0201184731 	-0.0135179959442 	0
1.02350435312 	-0.0083836685276 	0
1.02474405174 	-0.0053610523786 	0
1.02485088172 	-0.0034041343772 	0
1.02457458308 	-0.00207822066845 	0
1.02954350201 	0.00115398280133 	0
1.03304651033 	0.00180699082721 	0
1.03856670955 	0.00291311871367 	0
1.04618685339 	0.00402080153786 	0
1.05851149694 	0.00624985659112 	0
1.07653138131 	0.00879753477391 	0
1.10451373784 	0.0145666158089 	0
1.14433507021 	0.025421002834 	0
1.15466901466 	0.0275189767472 	0
1.08459749903 	-0.00615780589766 	0
0.969313053005 	-0.0749089761512 	0
0.87643874194 	-0.128944695179 	0
0.823470332223 	-0.145111044299 	0
0.807872855946 	-0.126504891745 	0
0.824025433827 	-0.0900205103771 	0
0.870359435986 	-0.0560842276842 	0
0.924058923053 	-0.026729241516 	0
0.961207319718 	-0.0104665664352 	0
0.987098747388 	-0.00407923517423 	0
1.00525337387 	-0.00147525870266 	0
1.01592921933 	-0.00113676628838 	0
1.02125355607 	-0.0010115641989 	0
1.02339166861 	-0.00097061643455 	0
1.02396338161 	-0.000762894351566 	0
1.02386059863 	-0.000544193193558 	0
1.02848493676 	0.00223805318583 	0
1.03150635138 	0.00373899434995 	0
1.03641126465 	0.00622829979658 	0
1.04299853843 	0.0096037679587 	0
1.05357311849 	0.0152497592106 	0
1.06820134267 	0.0238132893159 	0
1.08882818587 	0.0380953746639 	0
1.12061703289 	0.0637685432256 	0
1.14145921467 	0.099082054477 	0
1.10808576579 	0.11996056129 	0
1.01893446836 	0.108972155766 	0
0.913330570055 	0.0875043731462 	0
0.831655471588 	0.0755085926752 	0
0.798465568542 	0.0689276691614 	0
0.80917772305 	0.0643720069943 	0
0.854188197011 	0.064189548457 	0
0.914384667353 	0.0643081254276 	0
0.961903937659 	0.0545161548117 	0
0.992486782233 	0.0371792762508 	0
1.01074852775 	0.0222624244128 	0
1.01983782273 	0.0124377295795 	0
1.0235827045 	0.00669991423689 	0
1.0246318125 	0.00338477678355 	0
1.02459005526 	0.00161882176415 	0
1.02413303494 	0.000725467913708 	0
1.02687521591 	0.00292511345632 	0
1.0291889206 	0.00495018899102 	0
1.03287482422 	0.00821795145332 	0
1.03755558022 	0.0130595790016 	0
1.04479348476 	0.0209720819522 	0
1.05425129 	0.0335351284585 	0
1.06527741852 	0.0530662788584 	0
1.08137098624 	0.0849424200634 	0
1.09589763646 	0.132171854761 	0
1.07465379035 	0.180977949531 	0
1.00522628111 	0.214519712173 	0
0.91462893065 	0.229462000519 	0
0.843254474045 	0.225964292619 	0
0.816795715103 	0.207712314773 	0
0.826324816329 	0.183398486423 	0
0.868629756385 	0.160160513267 	0
0.933185271277 	0.135706890649 	0
0.988207101314 	0.101970982478 	0
1.01895774994 	0.0646685626549 	0
1.02994097753 	0.0373262770059 	0
1.03134675503 	0.0211845324663 	0
1.0301595212 	0.0118561534447 	0
1.02828509464 	0.00641217617458 	0
1.02656572217 	0.0033015142015 	0
1.02516970386 	0.00162995001765 	0
1.02500613738 	0.00275791580235 	0
1.02639905219 	0.00477633249199 	0
1.02837981429 	0.00811978767575 	0
1.03041221027 	0.01335737431 	0
1.0331066226 	0.0221412249789 	0
1.03603709541 	0.0365439189191 	0
1.03731178386 	0.0590679700432 	0
1.03908647846 	0.0919731147293 	0
1.04175533801 	0.139088092178 	0
1.01912327112 	0.197204327722 	0
0.963754725427 	0.249719598884 	0
0.898581618275 	0.280724813289 	0
0.852283630238 	0.282838827379 	0
0.841445799715 	0.266056149634 	0
0.856135117579 	0.239034631536 	0
0.901779752816 	0.20395656043 	0
0.972558365584 	0.161869620557 	0
1.03278160702 	0.109804325846 	0
1.0575906804 	0.0643384203581 	0
1.05469775962 	0.0370379772734 	0
1.04565886269 	0.0213496067058 	0
1.03843906371 	0.0123852786125 	0
1.0331025839 	0.00697315619972 	0
1.02930702677 	0.00378829978942 	0
1.02669162047 	0.00196799488452 	0
1.0232985546 	0.00179978314695 	0
1.02376794852 	0.00322711719903 	0
1.02404981992 	0.00573171247139 	0
1.02332225423 	0.00975789465634 	0
1.02118218519 	0.0168624076505 	0
1.01691428199 	0.0290138323083 	0
1.00930235857 	0.0492609154747 	0
1.00019215549 	0.0771169684857 	0
0.989283770598 	0.117414504288 	0
0.958131161404 	0.171997825751 	0
0.915010882234 	0.228079526617 	0
0.87812418434 	0.26826046951 	0
0.856308139634 	0.277595503707 	0
0.860673906623 	0.26540975346 	0
0.887228568639 	0.236934029342 	0
0.946097281577 	0.189708041318 	0
1.02881781137 	0.130645225407 	0
1.08543424719 	0.0737417987307 	0
1.09204239239 	0.0395237858536 	0
1.073867314 	0.0235237716497 	0
1.05673754731 	0.0137994635504 	0
1.04500961611 	0.00836769904159 	0
1.0371417724 	0.00484526236229 	0
1.03175007365 	0.00277697393011 	0
1.02819247167 	0.00149993557258 	0
1.02240212077 	0.000443884554539 	0
1.02236783122 	0.000777214250512 	0
1.02167441388 	0.00149456380207 	0
1.01920950796 	0.00257651698269 	0
1.01369606602 	0.00483694885181 	0
1.0035915264 	0.00931205643466 	0
0.988932998053 	0.0191315030381 	0
0.971148947231 	0.0344931640803 	0
0.946749449292 	0.0608844825703 	0
0.905772696048 	0.0995542025333 	0
0.867378628966 	0.140488934566 	0
0.850170442415 	0.1770543253 	0
0.853456158471 	0.193680740284 	0
0.881753648761 	0.187676384107 	0
0.932935272309 	0.155121031317 	0
1.00866309917 	0.0987530502515 	0
1.08884250951 	0.0451070972547 	0
1.12328375934 	0.0134746738417 	0