1.01414219024 	-0.00780760317501 	-1.15846950155e-21
1.01554595467 	-0.0122298747087 	-8.94500860919e-22
1.01725291779 	-0.0172328560076 	3.5421198219e-22
1.01930999719 	-0.02319727805 	-2.09134504103e-23
1.02133722546 	-0.0303093707676 	-3.64792329599e-22
1.02281610322 	-0.0389754602926 	-2.16888628323e-22
1.0227187648 	-0.0491399661072 	-2.45340470674e-22
1.0190617996 	-0.0596418044861 	-1.31809922705e-21
1.00994550446 	-0.0722934669791 	1.93253948216e-20
0.990625976575 	-0.0796007236869 	1.53294282228e-21
0.962071917605 	-0.0756912774502 	6.31422782695e-23
0.931619815567 	-0.0516987693842 	1.96532521878e-21
0.916367826807 	-0.00843567721898 	-4.00859170144e-24
0.928321383635 	0.0358247222468 	2.1877913995e-22
0.956227286205 	0.0620244286982 	-1.55305749019e-21
0.983419962194 	0.0690098925441 	1.84082294848e-21
1.00253803553 	0.0647628437644 	1.90183135118e-20
1.01256141057 	0.0547155191977 	-1.52311809599e-21
1.01744559455 	0.0464472855887 	-1.56983669983e-21
1.0188149844 	0.0377224430818 	3.30681960057e-22
1.01845843588 	0.0299106800447 	8.01780813203e-22
1.01740314734 	0.0232701426312 	-2.19474952394e-23
1.01612480718 	0.0175174853965 	-4.18901568369e-22
1.01495827191 	0.0125645668814 	9.80857812745e-22
1.01395533129 	0.00803856227116 	9.86016265229e-22
1.01846846045 	-0.00812861412571 	3.72337368227e-22
1.02038444357 	-0.0127183608367 	7.61803461883e-22
1.02296393825 	-0.0181315473311 	3.98780300103e-22
1.0261390785 	-0.0245957962155 	-1.0642260045e-22
1.0297322737 	-0.0325670236473 	5.59760350535e-22
1.03316232433 	-0.0427714750777 	-2.34511242441e-22
1.03527546567 	-0.0557105789656 	3.9528737731e-22
1.03405062697 	-0.0724557236575 	1.53894801002e-22
1.02513804704 	-0.0931686669744 	-5.53146496766e-22
1.00137390537 	-0.113833252517 	-2.41399882391e-21
0.953563569259 	-0.124654503242 	-3.5853911114e-21
0.884864865825 	-0.096257986453 	9.93275736673e-21
0.844810675782 	-0.00979296449839 	1.663626479e-22
0.879493277595 	0.0779038677745 	9.71418404387e-21
0.94404336112 	0.109949003414 	-8.46081700435e-21
0.990335192017 	0.103849473106 	-2.20807156951e-21
1.01447353001 	0.0872973902008 	-5.06670164951e-22
1.02509958447 	0.0699326496801 	-3.26087076391e-22
1.02829108321 	0.0552711896795 	-7.50410400369e-22
1.02810871771 	0.0434596093239 	3.72613144158e-22
1.02637643894 	0.0337695963397 	-8.39433261034e-22
1.02409449281 	0.0258557231954 	1.48121257582e-22
1.02187494135 	0.0192610337394 	-6.44325345588e-22
1.01995614714 	0.0135955856427 	-8.82527275723e-22
1.01847115068 	0.00871544552088 	-8.37503394106e-23
1.02279389001 	-0.0080849713516 	7.86239947717e-24
1.02536005148 	-0.012473794563 	2.56408789118e-22
1.02888677879 	-0.0179252994698 	-2.06252268745e-22
1.03339848491 	-0.0244551147585 	-2.66043538739e-25
1.03898455105 	-0.0326660591097 	1.24380671537e-22
1.0453233856 	-0.0436291452833 	3.67975064696e-23
1.0515834869 	-0.0586536606211 	-1.21968233521e-22
1.05590314094 	-0.0799916758886 	-4.92213150239e-22
1.05396432707 	-0.110523356674 	-1.24525803665e-23
1.03551511239 	-0.154667117661 	7.63289184237e-22
0.973016508911 	-0.208350460228 	1.30321094614e-20
0.814453237555 	-0.218712042483 	-2.01545054526e-21
0.667533848872 	-0.0118186113365 	-2.65048745387e-21
0.806071291266 	0.196314476014 	-3.77393584925e-21
0.957419897087 	0.192908796289 	1.18941058718e-20
1.01870937853 	0.146743609103 	-7.19994743301e-22
1.03910941107 	0.108454824597 	-3.9471900587e-23
1.04421809336 	0.081467077346 	1.05653125266e-21
1.0432696164 	0.0618372266264 	3.71392824077e-22
1.03986448416 	0.0473032459997 	-1.35828945642e-22
1.03570751895 	0.0360720688661 	-1.80360294052e-22
1.03167155589 	0.0272536995442 	1.8820179471e-24
1.02820626085 	0.020106902347 	3.88691526904e-22
1.02537714453 	0.0140287854627 	-4.30002012591e-22
1.02324082978 	0.00899631613529 	-4.47215682697e-22
1.02699886967 	-0.00753288650074 	1.69738677452e-23
1.03015459152 	-0.0116079662907 	2.01850166761e-23
1.03456259031 	-0.0165705331276 	3.96784779795e-23
1.04050803029 	-0.0225592310365 	4.6001301489e-23
1.04820304663 	-0.0301125757083 	5.46333162098e-23
1.0579470964 	-0.0405507648795 	2.55465392557e-23
1.06974221114 	-0.055536002898 	-3.30828303606e-22
1.08317095174 	-0.0782457833661 	-4.12692965614e-22
1.09670206224 	-0.114706086427 	5.85566933071e-22
1.10503757414 	-0.178262068181 	-1.33186078729e-21
1.08875665766 	-0.304468183162 	1.03756291837e-21
0.875761912474 	-0.602143189081 	-3.40906705858e-22
0.859871323206 	0.565423544813 	1.13607208047e-21
1.06157803749 	0.288168457484 	-9.54445098885e-22
1.07970510603 	0.174838897572 	-9.47965857836e-22
1.07671072251 	0.118962792239 	-2.61109987865e-22
1.06928911348 	0.0860231613181 	5.19311754813e-22
1.06103510514 	0.0638494470825 	9.2093215989e-23
1.05305959613 	0.0480110705916 	2.61053169226e-23
1.04588676674 	0.0361210310316 	3.57795195974e-23
1.03975173488 	0.0270745406552 	1.65456001017e-23
1.0347813181 	0.0198206333896 	-6.79858961134e-23
1.03094401814 	0.0138010439478 	7.64030859497e-25
1.02811582602 	0.00879981245432 	-6.76293444733e-24
1.03084210336 	-0.00646189006417 	8.38891694701e-24
1.03442928026 	-0.0101556759977 	-3.85800116883e-23
1.03953419429 	-0.014207512501 	-4.27266419936e-23
1.04669779679 	-0.0190515919326 	1.32545790761e-24
1.05622953747 	-0.0250794393749 	-8.66554311304e-23
1.06915878738 	-0.0332573587206 	-6.29587966518e-24
1.0865090569 	-0.0451074984586 	-7.60811459283e-24
1.10983742758 	-0.063643916933 	3.80578965931e-23
1.14207229659 	-0.0948869652521 	-6.10718979335e-22
1.18924256131 	-0.150460792266 	-2.71550872462e-22
1.27798832027 	-0.252550840756 	2.31767392338e-22
0.0412463361278 	0.00136019053787 	-1.84501953495e-21
1.2336640924 	0.241767033368 	-2.20983131321e-22
1.1522593542 	0.156269594422 	2.9183126328e-22
1.11678903518 	0.109844535015 	7.50789077716e-22
1.09520020871 	0.080438860509 	-2.14961867827e-22
1.07925167586 	0.0598775057083 	-2.42982902221e-24
1.06645359886 	0.0448783699281 	4.10842197326e-24
1.05602650973 	0.0336199568521 	4.93582143107e-23
1.04771966935 	0.0250584306289 	-1.3062412853e-25
1.04117609407 	0.0182661980651 	9.72225397452e-24
1.03631071316 	0.0127792887666 	4.4401196659e-24
1.03281674108 	0.00796685869548 	1.06410501176e-23
1.03390133316 	-0.00547696674825 	-3.45432724936e-24
1.03778216064 	-0.00813715277754 	5.94860623879e-23
1.04338890262 	-0.0111697058945 	2.37942766775e-23
1.05122549981 	-0.0144110205933 	1.47059588987e-23
1.06179158611 	-0.0181336834436 	1.6493238068e-22
1.07670368999 	-0.0225983929074 	2.58077999444e-22
1.09761375126 	-0.0285006852967 	-1.49245271264e-21
1.12790319806 	-0.0374684000413 	4.96105260033e-22
1.17312219732 	-0.052650727963 	1.92911230018e-21
1.24321912576 	-0.0793437007747 	-1.17635872107e-20
1.33702090741 	-0.114567800379 	3.09875618637e-20
0.104387327408 	-0.0497718351527 	1.53802302689e-21
-0.000156097963983 	-0.0115435655534 	-4.2772620045e-22
0.160479138142 	-0.0024106422634 	-1.80881745151e-24
1.26544451293 	0.10361743871 	-3.00324994486e-20
1.18948822717 	0.103582214403 	8.85371539876e-21
1.14480393794 	0.0852967858228 	8.09714119673e-22
1.11635738403 	0.0662731842401 	2.22716690965e-22
1.09507055838 	0.0503191171474 	1.14027864922e-21
1.07844910443 	0.0379118033479 	-1.97390542852e-22
1.06512987482 	0.0284024449864 	-1.55818627075e-22
1.05484616537 	0.0211549142671 	-7.35459849206e-24
1.0468874491 	0.015456636382 	2.2576511357e-25
1.04099727153 	0.010730494281 	-2.33408923791e-23
1.0368474892 	0.00689608127464 	-6.62900302005e-23
1.03634806015 	-0.00418502623041 	1.90294311275e-23
1.0401721042 	-0.00599071236219 	-4.23126192856e-22
1.04589764285 	-0.00792886015549 	5.00104435135e-22
1.0537555585 	-0.00949729987316 	-4.12556370673e-24
1.06434776929 	-0.0106518938532 	-4.18490490853e-22
1.07910511981 	-0.0108872978885 	-4.32751676067e-22
1.10008120936 	-0.00961535154855 	1.23775070107e-21
1.13136861764 	-0.00592560939943 	4.36387708089e-21
1.1794419778 	0.000567298724184 	1.10330954282e-21
1.25921812447 	0.00717540748891 	4.30319638924e-21
1.33983164215 	0.0101581402447 	3.47079888996e-21
0.408929891548 	-0.139157818845 	-4.85998601234e-21
-0.158717007348 	-0.265791981191 	-3.35232127177e-21
0.155559222807 	-0.159322946385 	-5.49670599136e-21
1.17940428388 	0.0131300881377 	-2.16226538369e-21
1.1889183992 	0.0620790155777 	-2.53438575873e-21
1.15839688216 	0.0593296313873 	-9.69378139037e-23
1.13079433546 	0.0480888218956 	-3.68450506257e-21
1.10720774395 	0.0369270027964 	-1.11711417097e-21
1.08779166765 	0.0279452027977 	2.82332635947e-22
1.07242046831 	0.0209797880001 	3.48970235277e-22
1.06051816548 	0.0156398582379 	3.37392409916e-24
1.05143729693 	0.0115495838331 	-3.81346708943e-22
1.04473789438 	0.00795816329542 	3.20563664382e-22
1.0401972153 	0.00521376884552 	2.69423611247e-22
1.03812448192 	-0.0028528135129 	-3.18622221049e-22
1.04172807902 	-0.00399714903047 	-8.62077249761e-22
1.0471098058 	-0.00497584543645 	-5.90335351799e-22
1.05436942666 	-0.00520334064445 	8.89050337061e-23
1.06376100477 	-0.00421831960881 	-8.08900840177e-22
1.0764313449 	-0.000905168079194 	5.53372731917e-22
1.09353972806 	0.00672942408847 	-1.38987937562e-21
1.11817838705 	0.0220251838415 	-9.60563339925e-23
1.16052949205 	0.051565868206 	-3.18525802074e-21
1.2209582658 	0.10066969788 	-3.98156762537e-21
1.30205588004 	0.183383071601 	9.61751047529e-21
0.687978152627 	0.124659472234 	1.63103688229e-20
-0.12193164909 	-0.033407278066 	6.74476017525e-22
0.0491941509435 	-0.0846142711962 	5.47934144038e-21
1.05763436258 	0.0182923055351 	-9.6712346793e-22
1.18535623018 	0.0497156583 	-1.55748375089e-21
1.16856897563 	0.0381835356935 	-1.3723409025e-21
1.14049350175 	0.0281495883622 	2.8092113699e-22
1.11538143906 	0.0208744667547 	1.58146312849e-21
1.09431630954 	0.0155798521559 	-5.79588982485e-22
1.07702776176 	0.0118966721831 	8.66820398543e-22
1.06418440715 	0.00896456089228 	-9.53541504344e-23
1.05443080501 	0.0068406993275 	4.95177332611e-22
1.04733182341 	0.00477775453746 	6.50570475728e-22
1.04254166888 	0.0032774604227 	1.29022302223e-23
1.0391823674 	-0.00180927355831 	9.08876110511e-22
1.04263621608 	-0.00238617952962 	7.75824855885e-22
1.04735029186 	-0.00267895425354 	-3.2640500203e-22
1.05363411981 	-0.00214113554164 	-1.31911244683e-22
1.06109019143 	-2.68932856617e-05 	4.26138596349e-22
1.07024313191 	0.00508315690153 	1.66688965453e-22
1.08097451968 	0.0162262683149 	-2.32485138178e-22
1.09162557663 	0.0359818091263 	7.41807125261e-22
1.10923368476 	0.0771206464882 	2.57814131266e-20
1.12931540418 	0.15542809054 	2.50103852222e-21
1.16197112995 	0.304031716908 	8.64857945756e-22
0.763699135822 	0.435283535341 	4.70892352557e-21
0.0291888217016 	0.397929266405 	-1.99927924738e-22
0.136766245737 	0.221974109946 	1.21122765823e-21
1.017666499 	0.0725737279799 	-6.13350262371e-22
1.21350440324 	0.0448930198032 	1.25643378892e-21
1.18174154816 	0.0151768262668 	2.1935529175e-20
1.14752654777 	0.0061413582186 	4.2228128344e-22
1.12022875972 	0.00129302587766 	2.72563820646e-21
1.09638338298 	0.00170965256004 	-3.05022178487e-22
1.07866133163 	0.0017226907075 	-7.05216252831e-22
1.06549185405 	0.00171749791354 	1.28969528679e-22
1.05558287834 	0.00178480061927 	3.02535282284e-22
1.04856445273 	0.00154094886696 	-6.03200838795e-22
1.04366129639 	0.00121368384199 	-4.88558015879e-22
1.03979348529 	-0.000902737104342 	-1.12882921604e-21
1.04301778577 	-0.00112986616279 	-4.50574823198e-22
1.0471175196 	-0.0011739489403 	-7.61502978705e-23
1.05241075352 	-0.000533346686202 	-3.16753450501e-22
1.05806314526 	0.00129269894039 	2.7254352767e-22
1.06357291567 	0.0061882204494 	-9.83460517262e-22
1.06528444904 	0.0141126322577 	-7.75755201919e-22
1.06431783556 	0.0329153909071 	-9.04143261691e-22
1.05379817316 	0.0689503363304 	2.34132704246e-21
1.02068867493 	0.138201994453 	1.82507248726e-22
0.97667596509 	0.279045985029 	-3.0751209472e-21
0.632184629019 	0.453020477086 	-2.21345078787e-21
0.136806663586 	0.550309035973 	-8.29922197058e-22
0.403189917516 	0.335623495423 	3.01360587393e-21
1.13078307347 	0.0382493818032 	-2.80389979859e-21
1.26190557443 	-0.00776805377788 	1.17626218497e-21
1.19471253503 	-0.0280426330702 	3.31446066357e-21
1.15019967102 	-0.0242682153969 	-8.60302540326e-22
1.11634457987 	-0.0176092470231 	1.17288707515e-21
1.09351957987 	-0.0147178648095 	9.21841074483e-22
1.07737034869 	-0.00868052296659 	-1.55269756436e-21
1.06427445423 	-0.00539587126108 	2.92272263763e-22
1.0548084388 	-0.00301359105633 	9.51970234065e-23
1.04828710839 	-0.00165600035144 	6.66617830144e-22
1.04368856857 	-0.000812929569684 	2.90704260246e-22
1.03994153637 	-0.000197343838419 	1.33953942488e-21
1.04308285057 	-0.000100611251013 	-2.59537913022e-21
1.04690450754 	-0.000183425726046 	1.4620081154e-21
1.0515028622 	0.000503901827635 	5.96583911881e-24
1.05577551079 	0.000591930090448 	1.73473440625e-21
1.05858927043 	0.00179920233406 	-4.19502237217e-22
1.05738980707 	0.00515493577361 	-1.10030169384e-21
1.04741108368 	0.0107371504312 	4.98636289211e-23
1.01379254291 	0.0284112055556 	2.97796522904e-22
0.952410482748 	0.0577768608301 	-4.75822895922e-23
0.829573672452 	0.140092440762 	9.62995172741e-22
0.399184718721 	0.365989824151 	3.13987622951e-23
0.284625443879 	0.303932374241 	-5.08949629336e-22
0.751900006731 	0.0171470466366 	1.7074316925e-22
1.22466027013 	-0.136094637921 	-1.07269846983e-20
1.26478120317 	-0.115179385188 	1.11892921587e-21
1.182557914 	-0.0825636013985 	1.34412273732e-21
1.13759112882 	-0.0559587312105 	1.42062486492e-22
1.10554574256 	-0.0385589503188 	-2.57377226226e-21
1.08559778423 	-0.0251877607436 	-7.5380829765e-22
1.07119067936 	-0.0173322162062 	1.97210546452e-21
1.06023727708 	-0.0119031228836 	-1.24267522578e-24
1.05223997567 	-0.00705771905572 	-1.64266260994e-21
1.04658642678 	-0.00464745802505 	2.66686387758e-21
1.04254316838 	-0.00244848052245 	-7.7597407063e-23
1.0398705366 	0.000564893660994 	-9.72191364809e-22
1.04309657496 	0.000980292089186 	5.78342443846e-24
1.04655898033 	0.00142252048128 	2.66693082081e-21
1.05115447531 	0.000168292575464 	-1.16926710564e-21
1.05634330809 	-0.000988281392844 	1.58756982819e-21
1.05996815546 	-0.00268667307234 	-1.53636629001e-21
1.05888116899 	-0.00783314638285 	1.61727834488e-22
1.04848337652 	-0.0162979685409 	1.02461629043e-24
1.01343685356 	-0.0319122831516 	-1.04181897251e-21
0.927491018334 	-0.0561544865043 	1.31720482244e-21
0.665191097782 	0.00668773065387 	-1.33824842538e-21
0.409991039863 	0.0254227043119 	-6.42947984105e-22
0.525158538658 	-0.151561619689 	-3.14574229107e-22
0.922872248576 	-0.317420185823 	-3.37862866613e-21
1.17139265234 	-0.294130031594 	1.45705546536e-22
1.19657327433 	-0.206420001062 	-3.77265895417e-21
1.1355888741 	-0.125604041015 	2.93285802552e-21
1.10611273068 	-0.081431961714 	2.80938204529e-23
1.08751523325 	-0.0537532299835 	4.67980450521e-22
1.07251113168 	-0.0349944942722 	-2.9300564573e-21
1.06200698664 	-0.0227545604946 	2.34501521543e-21
1.05397467695 	-0.0147710438991 	-4.44275698338e-22
1.04780643809 	-0.00999808884524 	-3.30633308624e-21
1.04398400839 	-0.00676661080704 	-7.38459900074e-23
1.04065585743 	-0.00353857737214 	6.13616474171e-22
1.03915741391 	0.00162485459609 	7.93060736953e-22
1.0427461279 	0.00170882705513 	-4.08058555234e-22
1.0463918718 	0.00162499149463 	-2.33611731426e-22
1.05241374925 	0.00145705288888 	2.80930445229e-22
1.05881089502 	-0.000647525059911 	2.58997553623e-22
1.06665997915 	-0.00474957220011 	4.44436953369e-22
1.07200469862 	-0.0162631736537 	9.77137776478e-23
1.07599949679 	-0.0353258373651 	9.09237289992e-23
1.06341326883 	-0.088033203413 	9.26741493113e-23
0.958886097179 	-0.145280437528 	-5.71274789815e-23
0.656772354251 	-0.230990234016 	2.76180818975e-22
0.525269945369 	-0.320721438309 	1.97919373203e-22
0.656757889115 	-0.408347814762 	-4.55117092706e-22
0.922528225066 	-0.434095036354 	1.38738391408e-21
1.06995721689 	-0.344153397512 	1.55727242488e-21
1.08624219281 	-0.226093357413 	1.10412212995e-22
1.07198137939 	-0.139070458116 	-1.06250310474e-22
1.06776163165 	-0.0890038937409 	-5.41257985492e-23
1.06260798696 	-0.0586002453046 	1.25347097046e-22
1.05685184661 	-0.0375823023896 	8.55237527488e-22
1.05205764713 	-0.0247347268563 	2.73037123516e-22
1.04694493068 	-0.0160283939114 	1.81811912712e-22
1.04327026135 	-0.0104884906695 	-4.03438870875e-22
1.04087125182 	-0.00712530061021 	-1.00584427819e-21
1.03822791287 	-0.0041188756866 	-6.35724301087e-22
1.03836068707 	0.00258733788791 	-2.10819508105e-21
1.04132264499 	0.00290838075035 	6.86886293141e-22
1.04640756351 	0.00399785536873 	-6.53935894446e-24
1.0530407205 	0.00367729584761 	5.25194048264e-23
1.06185769111 	0.00370742624084 	-2.40751570023e-22
1.07506514865 	0.000489702662933 	6.16581211959e-23
1.08935590255 	-0.010669901955 	3.5867781332e-22
1.12217672918 	-0.0230677818379 	3.05061727919e-23
1.15876916449 	-0.0880711025176 	-2.45533588907e-24
1.07256539196 	-0.157741133989 	-9.05393049509e-23
0.783233989441 	-0.32911612766 	-8.30095652997e-22
0.614798134901 	-0.454404812679 	4.78182983873e-24
0.668189111392 	-0.475414518459 	-3.31706637008e-22
0.846962597479 	-0.412180876078 	4.09543945731e-22
0.940641251177 	-0.3080060907 	2.40422347588e-22
0.974602912848 	-0.194476775745 	-1.40716571915e-23
1.00094256355 	-0.123408947406 	2.18313538777e-23
1.02806399659 	-0.0776413458038 	3.33614940875e-23
1.03775394385 	-0.051140376131 	6.73577321253e-22
1.04101811541 	-0.0322418915596 	-1.72674659813e-22
1.04275624188 	-0.0221139869141 	-3.34683967058e-22
1.04115293153 	-0.0146392183368 	5.29308778755e-23
1.03931833409 	-0.00968772266852 	8.77911833259e-24
1.03708592904 	-0.00647171452007 	7.68451321303e-22
1.03564093508 	-0.00416815972399 	1.50168218908e-22
1.03696658992 	0.0025015930586 	-4.33333035977e-22
1.04041945735 	0.00447319325628 	-4.66064803311e-22
1.04565821355 	0.00625136558064 	1.4083439295e-22
1.05242227564 	0.00757298603238 	7.29480485771e-24
1.06302928529 	0.0106771605606 	1.32782589108e-22
1.07793291803 	0.00976856586733 	2.47978232925e-22
1.10089221405 	0.0099072902212 	1.6214260789e-23
1.14730891975 	0.00748079076539 	-3.52777549436e-22
1.20577515532 	-0.00593517071449 	6.08200304461e-22
1.17296952073 	-0.0400902660248 	3.04590312567e-22
0.963268836419 	-0.158450818813 	-6.82022622624e-22
0.726587929265 	-0.310690107748 	0
0.648410863643 	-0.37653936969 	-4.29920594783e-36
0.71811134104 	-0.332890008768 	-6.81567145315e-25
0.824421798441 	-0.222962963714 	4.95211475175e-23
0.899514357868 	-0.133028106533 	-7.64826463378e-23
0.955359490077 	-0.0830228329732 	-3.96360635384e-23
0.996538643169 	-0.0518236455985 	5.21003430524e-23
1.01878448564 	-0.0327614395824 	1.85166856189e-24
1.02843048297 	-0.0216209993987 	1.26136332618e-22
1.03381251395 	-0.0151040901384 	1.17085287444e-22
1.03565915662 	-0.0104005252393 	2.51520105892e-23
1.03540506793 	-0.0072426616235 	1.46052389555e-22
1.03466910057 	-0.00491364708075 	-4.54460829085e-22
1.03365422556 	-0.00295068843742 	-4.29117429688e-22
1.03529645856 	0.00362980324059 	0
1.0383916622 	0.00601075476427 	0
1.04320065526 	0.00879573550667 	0
1.04923164943 	0.0118945156996 	0
1.05917982955 	0.0175118492121 	0
1.07359999986 	0.0229199785041 	0
1.09368034697 	0.032849015361 	0
1.13446186252 	0.0499836155507 	0
1.19630120414 	0.0772729904295 	0
1.20002150095 	0.109487142939 	0
1.06706900208 	0.0860937963536 	0
0.853162222896 	-0.0162107432873 	0
0.701461570483 	-0.106052637183 	0
0.682516663084 	-0.128803376901 	0
0.746652349717 	-0.0885461936009 	0
0.841106832057 	-0.0365035150948 	0
0.926180584265 	-0.0181790958815 	0
0.979573116844 	-0.0119809184782 	0
1.00983647821 	-0.00803912300426 	0
1.02443082751 	-0.00686983151173 	0
1.03118046911 	-0.00625694483679 	0
1.03385610539 	-0.00518501790652 	0
1.03422043935 	-0.00425644034145 	0
1.03355829885 	-0.00332333374889 	0
1.0326021509 	-0.00217966618048 	0
1.03310699297 	0.00435171629289 	0
1.03552772476 	0.0070182081594 	0
1.03940622837 	0.0106584538172 	0
1.04403629806 	0.0154140002129 	0
1.05159299356 	0.0226240014627 	0
1.06207724477 	0.0331442595771 	0
1.07513094196 	0.0496235963405 	0
1.100323265 	0.0755979944654 	0
1.1403189283 	0.122740842549 	0
1.15202188251 	0.193555608481 	0
1.07957543252 	0.241158314823 	0
0.92322516459 	0.224444527924 	0
0.768516528752 	0.178321714316 	0
0.709306185293 	0.133482610106 	0
0.738259966213 	0.113587499555 	0
0.830226270414 	0.106634549863 	0
0.932228214993 	0.0795221558987 	0
0.989314835417 	0.0471787935027 	0
1.01687313189 	0.0237766049075 	0
1.02915997616 	0.0108798768315 	0
1.03353369758 	0.00358789878497 	0
1.03482630519 	6.42494789691e-05 	0
1.03432827003 	-0.00137280819968 	0
1.03312642469 	-0.00171358503901 	0
1.03184452425 	-0.00136235049899 	0
1.03069242622 	0.00445803003103 	0
1.03234384648 	0.00719247674194 	0
1.03494637927 	0.0110502720708 	0
1.0379561832 	0.0165561196799 	0
1.04226226163 	0.024443939674 	0
1.04758641785 	0.0370074143642 	0
1.05344332137 	0.0561213791194 	0
1.06214811349 	0.0843475139681 	0
1.07351180738 	0.134618955147 	0
1.07157614727 	0.211302805276 	0
1.02937059847 	0.291303351939 	0
0.918935810192 	0.332734955065 	0
0.796197282353 	0.327835026909 	0
0.747935885321 	0.296331493109 	0
0.774133241291 	0.258932048672 	0
0.872544745965 	0.212637843613 	0
0.983113749598 	0.149522389239 	0
1.0340799355 	0.0866504779655 	0
1.04529757207 	0.0438137133735 	0
1.04388251699 	0.0221457898673 	0
1.04117831432 	0.00962901769258 	0
1.03849652043 	0.00343757161941 	0
1.03569658723 	0.000491134854935 	0
1.03336429089 	-0.000685651503766 	0
1.0314981833 	-0.000822795182602 	0
1.02817205957 	0.00393226218773 	0
1.02907304933 	0.00633699368375 	0
1.03021350109 	0.00965319577922 	0
1.03118548681 	0.0146026419546 	0
1.03159356657 	0.0220416098526 	0
1.03095731937 	0.0341219452348 	0
1.02837800272 	0.0534819766849 	0
1.02182447387 	0.0830006536999 	0
1.009853124 	0.131006286449 	0
0.986146239354 	0.199592607933 	0
0.95096223897 	0.286968587273 	0
0.881421310965 	0.354855409765 	0
0.80288953119 	0.368113762877 	0
0.778971598223 	0.345470645092 	0
0.819918112943 	0.302072615166 	0
0.939086652049 	0.231107543925 	0
1.05974373143 	0.144334796501 	0
1.09566601876 	0.0754907084155 	0
1.08136699006 	0.0385610083858 	0
1.06279254683 	0.0199498909785 	0
1.05140819788 	0.00875239416247 	0
1.04356749218 	0.00353286584159 	0
1.0380498431 	0.000661553230401 	0
1.03414957275 	-0.000506612819417 	0
1.03151681468 	-0.000705903078665 	0
1.0260705384 	0.00268226859382 	0
1.02636551637 	0.00426646003117 	0
1.02624196245 	0.00634377030117 	0
1.0251190661 	0.00943830622873 	0
1.02174810829 	0.0144990720388 	0
1.0150107728 	0.0228637023957 	0
1.00300176355 	0.0378184324483 	0
0.983563305335 	0.0618933003186 	0
0.954695322379 	0.0993694145591 	0
0.910315514924 	0.15281316992 	0
0.867616169086 	0.224285867122 	0
0.830346459397 	0.296048266135 	0
0.800552324599 	0.322667946505 	0
0.810877468276 	0.299856557166 	0
0.88888554402 	0.234235449249 	0
1.03320411225 	0.138635625928 	0
1.13876219321 	0.0610463113561 	0
1.14047206887 	0.0238759646486 	0
1.10308116511 	0.0123824850852 	0
1.07521693196 	0.00583929373354 	0
1.05837946053 	0.00130617658802 	0
1.04708970416 	-0.000144753373213 	0
1.03991809565 	-0.0012019563069 	0
1.03475142121 	-0.00126181034339 	0
1.03149886622 	-0.00103820038259 	0
1.02498759597 	0.00102984688528 	0
1.02509262283 	0.00146212092011 	0
1.02452172057 	0.00180783821615 	0
1.02247654366 	0.00202617896322 	0
1.01729317765 	0.0023283875163 	0
1.0069034215 	0.00270641368504 	0
0.988394834289 	0.00506698523257 	0
0.960196441771 	0.0108527317413 	0
0.918482072701 	0.0256111409675 	0
0.859094370529 	0.0530970135918 	0
0.808466124647 	0.0897991367899 	0
0.787939941372 	0.129311107939 	0
0.804194699535 	0.145676673301 	0
0.869363761474 	0.118652585934 	0
0.985611362056 	0.0497329991123 	0
1.11757074151 	-0.0202583326919 	0
1.17477671691 	-0.0416827957189 	0
1.14488014833 	-0.0306589106834 	0
1.10164938236 	-0.0178643411304 	0
1.07534725198 	-0.0116957228856 	0
1.05833800424 	-0.0085860243475 	0
1.04667918392 	-0.00584560420538 	0
1.0395595607 	-0.00433865846835 	0
1.03423706809 	-0.00281954574031 	0
1.03093021464 	-0.00183501582368 	0
1.02505537522 	-0.000365080811254 	0
1.02558033182 	-0.000999292327518 	0
1.02571728891 	-0.00247656918228 	0
1.0248548657 	-0.00542799859999 	0
1.02137573373 	-0.0107799449367 	0
1.01297836257 	-0.020261721446 	0
0.995199446573 	-0.035355741805 	0
0.963552335318 	-0.0553643146814 	0
0.911776953426 	-0.0697642643672 	0
0.844113466776 	-0.0737355843973 	0
0.793671899362 	-0.0743488138725 	0
0.781468358391 	-0.0806556603667 	0
0.820954653857 	-0.0920059125247 	0
0.918225330172 	-0.111870958661 	0
1.03658368827 	-0.137909235365 	0
1.12798427716 	-0.139070574361 	0
1.14947720791 	-0.104680949579 	0
1.11728549437 	-0.0650400715137 	0
1.08502217826 	-0.0396822018662 	0
1.06609231678 	-0.0254424823463 	0
1.05248439858 	-0.0166972073752 	0
1.04273789834 	-0.0109019313079 	0
1.03680083158 	-0.00730535253539 	0
1.03225298882 	-0.0045507444591 	0
1.02947158487 	-0.00279573365899 	0
1.02591954122 	-0.00115695584618 	0
1.02739145503 	-0.00248947609936 	0
1.02918315502 	-0.00526403650882 	0
1.03123227836 	-0.010343828538 	0
1.03266683238 	-0.0192471585889 	0
1.03233193391 	-0.0350407976377 	0
1.02402461952 	-0.0622268198496 	0
0.99509007983 	-0.1030708519 	0
0.936227130486 	-0.143780142231 	0
0.862265458032 	-0.173898268487 	0
0.813288662963 	-0.199645074354 	0
0.803280647431 	-0.226807376394 	0
0.836516914302 	-0.248188198127 	0
0.920458846565 	-0.253228636895 	0
1.01573687039 	-0.234434489973 	0
1.08142460328 	-0.18970333956 	0
1.09636841129 	-0.131788818819 	0
1.07800161178 	-0.0831126968147 	0
1.06221877564 	-0.0526450772582 	0
1.05217525396 	-0.0336703273026 	0
1.04356358473 	-0.021396274133 	0
1.03703221306 	-0.0136951445855 	0
1.03287198885 	-0.00884823405353 	0
1.02952857598 	-0.0054818767874 	0
1.02748134718 	-0.00329939403465 	0
1.02710222348 	-0.00139834160087 	0
1.02972873188 	-0.00290567819645 	0
1.0335007846 	-0.00579977505327 	0
1.03886135186 	-0.0108769003269 	0
1.04621093868 	-0.0193266746011 	0
1.05627717458 	-0.0345433576752 	0
1.06382381425 	-0.0605837572622 	0
1.04485972948 	-0.107249825747 	0
0.982391535592 	-0.166365985645 	0
0.899917719965 	-0.216337187829 	0
0.845871541086 	-0.255670737033 	0
0.830380845793 	-0.28584077671 	0
0.846179234838 	-0.304576543514 	0
0.900382946502 	-0.300873035994 	0
0.965702149947 	-0.261684515984 	0
1.01715166811 	-0.199771170887 	0
1.0384775562 	-0.13726684254 	0
1.03651651628 	-0.0891293826802 	0
1.03573021466 	-0.0571447084484 	0
1.0350899668 	-0.0355134669707 	0
1.03273338302 	-0.0217938386371 	0
1.03043158056 	-0.0134720257347 	0
1.0286204382 	-0.00838766492532 	0
1.02678051993 	-0.00508399652766 	0
1.02550503793 	-0.00299451162482 	0
1.02819945246 	-0.00106045305304 	0
1.03171657812 	-0.00209013173315 	0
1.03704071116 	-0.00384067357602 	0
1.04479507298 	-0.00696221764963 	0
1.05653794511 	-0.01169456869 	0
1.07414767583 	-0.0206176399355 	0
1.09669784951 	-0.0345165711562 	0
1.09994430903 	-0.0652883304306 	0
1.04659680932 	-0.124076858915 	0
0.952227521057 	-0.191984408591 	0
0.881033545914 	-0.247824802952 	0
0.851434417618 	-0.2808875132 	0
0.849269713399 	-0.294536308181 	0
0.873286806541 	-0.280613996609 	0
0.90845016151 	-0.232200813349 	0
0.951240134777 	-0.171036906692 	0
0.984241279365 	-0.114844994399 	0
0.997493956289 	-0.0742148749766 	0
1.00841317426 	-0.0468535427527 	0
1.01693981532 	-0.0276422873763 	0
1.02160629312 	-0.0162960519966 	0
1.02389355096 	-0.00969724755082 	0
1.02463355701 	-0.00587021131902 	0
1.02435831002 	-0.00345469971325 	0
1.02387126154 	-0.00199883354923 	0
1.02879228345 	-6.74140149908e-05 	0
1.03262176786 	-0.000118656617021 	0
1.03859152517 	-0.000116937510475 	0
1.04715242905 	-0.000452090025331 	0
1.06045973245 	-0.000451125262623 	0
1.08013497245 	-0.00120021219239 	0
1.10874550287 	-0.000584779857308 	0
1.13396957989 	-0.00331877743411 	0
1.10910127028 	-0.0291814347945 	0
1.02454589834 	-0.0841761810453 	0
0.936007476034 	-0.148353324827 	0
0.876671288777 	-0.187294090571 	0
0.84515602336 	-0.195522419458 	0
0.839685921298 	-0.175426372852 	0
0.856264109554 	-0.135781572689 	0
0.897266078508 	-0.0943412078637 	0
0.941484372295 	-0.0557562395706 	0
0.968756296737 	-0.0307652855433 	0
0.988627348584 	-0.0168465710205 	0
1.00425283333 	-0.00832860938804 	0
1.01442579659 	-0.00454783413103 	0
1.01983833621 	-0.00262459996917 	0
1.02220266887 	-0.00165795161737 	0
1.0228876438 	-0.0009792838909 	0
1.02290615279 	-0.000613684252452 	0
1.02843570961 	0.00124600342436 	0
1.03198960605 	0.00223221672843 	0
1.03763562195 	0.00390104148941 	0
1.04551256488 	0.0062350201764 	0
1.05776551924 	0.0104199487615 	0
1.07506038675 	0.0167554148616 	0
1.09974971325 	0.0282317737702 	0
1.12888824445 	0.0476019637966 	0
1.12838410595 	0.0637588018135 	0
1.0751528064 	0.0542905044289 	0
0.989716999221 	0.02049429118 	0
0.90414739594 	-0.00337138737631 	0
0.843438536501 	-0.00791735913246 	0
0.819673866181 	-0.00269327509469 	0
0.830183219678 	0.00546283799286 	0
0.870104987817 	0.0152056515496 	0
0.920345020327 	0.0276187845652 	0
0.958739418708 	0.0311367771765 	0
0.985593536544 	0.0251848173143 	0
1.00456223685 	0.0169081306858 	0
1.01572331464 	0.010110663265 	0
1.02085459311 	0.00580421889831 	0
1.02277426428 	0.00317245290606 	0
1.02317596422 	0.00170361620661 	0
1.02301523356 	0.000821600014657 	0
1.02713161557 	0.00225169392771 	0
1.02999564425 	0.00396294721607 	0
1.03452640773 	0.00685113831099 	0
1.04061459898 	0.0112675346609 	0
1.04994140498 	0.0186813243306 	0
1.06244373376 	0.0303802969483 	0
1.07806205767 	0.0488436035127 	0
1.09709818839 	0.0795976738415 	0
1.10287370262 	0.118262361312 	0
1.07084373637 	0.146230464423 	0
0.997988595021 	0.156623744742 	0
0.911251194498 	0.161437292239 	0
0.848634491571 	0.159444716215 	0
0.826893300476 	0.147278729937 	0
0.836656228231 	0.13115103007 	0
0.872692021809 	0.116610234353 	0
0.925071681205 	0.104496214814 	0