1.01408949086 	-0.00822822222239 	-2.07851389031e-21
1.01518790365 	-0.0128464087146 	-1.57690892718e-21
1.01645409173 	-0.0179822081088 	5.74503097163e-22
1.0178447648 	-0.0240384185548 	2.32132088804e-25
1.01898924082 	-0.031064406783 	-6.37721241996e-22
1.01936874001 	-0.0394198223895 	-3.10216417605e-22
1.01793412539 	-0.0487915619801 	-3.52471696938e-22
1.01274658447 	-0.0577600145475 	-1.71264410661e-21
1.00234672606 	-0.068210170921 	2.39563285682e-20
0.982554535251 	-0.0724425448986 	1.73234835952e-21
0.954983248226 	-0.06502527925 	3.91340755663e-23
0.927393942591 	-0.0380501424578 	2.06683263128e-21
0.916430086133 	0.00649251194809 	-3.44957483463e-24
0.932608770353 	0.0494732437273 	2.43145454379e-22
0.963349036575 	0.0726561991782 	-1.45072974946e-21
0.99150895395 	0.0761283575275 	1.66236306761e-21
1.01014431655 	0.068803594202 	1.56325454808e-20
1.01885848866 	0.0565605359221 	-1.1875937024e-21
1.02222852604 	0.0467576255179 	-1.11610856562e-21
1.02224935614 	0.0372473267268 	2.30060499227e-22
1.02079012069 	0.0291345373469 	4.60381408904e-22
1.01884420474 	0.0224142840637 	1.00074071842e-23
1.01689755184 	0.0167599935177 	-2.51626523349e-22
1.01528721547 	0.0119459750524 	5.28564678527e-22
1.01397957555 	0.00761727411111 	5.30949209133e-22
1.018692789 	-0.00883158614026 	7.37824487009e-22
1.0203300273 	-0.0137970532731 	1.46738675854e-21
1.02244618783 	-0.0196447822905 	9.53816393229e-22
1.02490758817 	-0.0265759983338 	-1.89839640446e-22
1.02745568044 	-0.0349626776207 	9.41580630958e-22
1.02938003605 	-0.0453754628451 	-4.13424200725e-22
1.02956912255 	-0.0580931529271 	7.4121182781e-22
1.02610187078 	-0.0738374543729 	2.34490022702e-22
1.01451039151 	-0.0920678048731 	-7.28126376452e-22
0.989180641237 	-0.108804688007 	-3.07117898764e-21
0.941766297522 	-0.114021828778 	-4.19133362774e-21
0.877211985161 	-0.0799062160925 	1.04310744598e-20
0.84485727572 	0.00916413564047 	1.6785026913e-22
0.887238417133 	0.0942221107913 	9.37457706006e-21
0.955881796764 	0.120534993972 	-7.55583920141e-21
1.00255625535 	0.108832304144 	-1.71464922976e-21
1.02508699608 	0.0883594528867 	-3.66248106031e-22
1.03304776235 	0.0685153306198 	-2.07338423361e-22
1.03399549496 	0.0528636823744 	-3.39332394157e-22
1.03187441465 	0.0408365605048 	1.85499091604e-22
1.0286275854 	0.0313588052995 	-4.73390597232e-22
1.02529334503 	0.0238694145673 	7.7395967259e-23
1.0223597037 	0.0177452565009 	-1.82423475026e-22
1.01998146228 	0.0125208195245 	-4.17025179046e-22
1.01821422589 	0.00801757591623 	-1.0487789764e-22
1.02347790239 	-0.00900331241135 	1.48846716931e-23
1.025853017 	-0.0139882471638 	6.98270605986e-22
1.02899715375 	-0.0202039212217 	-6.56642018362e-22
1.03286897162 	-0.0276311556464 	-3.69910137341e-24
1.03741264832 	-0.0369135221734 	2.9092566653e-22
1.04205638183 	-0.0489664818943 	2.87953343239e-22
1.04576985304 	-0.0647670493059 	-6.10620928011e-22
1.0465226358 	-0.0859719078862 	-1.53157035714e-21
1.04028466918 	-0.114600548958 	-1.56845529597e-22
1.01763087113 	-0.153891955925 	1.19647167891e-21
0.952852736703 	-0.198561323758 	1.66504357227e-20
0.799053371837 	-0.196592657883 	-2.09768540541e-21
0.667648471892 	0.0172922620561 	-2.65891649915e-21
0.821611710116 	0.218209652941 	-3.57873210794e-21
0.977571178962 	0.202578732752 	9.20678629345e-21
1.03658250382 	0.147483394078 	-4.07017577806e-22
1.0528096711 	0.104342904805 	1.4260255138e-23
1.05360886735 	0.0754390258989 	-9.25783655117e-24
1.04906472119 	0.0556778986465 	-1.05788819915e-22
1.04310770942 	0.04192557977 	6.47188484805e-23
1.03724549397 	0.0317982736462 	-5.18946714312e-23
1.03216115943 	0.024052999044 	-1.19348988925e-24
1.02805698905 	0.0178126838059 	2.51582500444e-23
1.02485117836 	0.0124935371871 	-8.2171214593e-23
1.02252520115 	0.00807304116058 	-1.16494083221e-22
1.02828825407 	-0.00858333539609 	6.58674461395e-23
1.03141207271 	-0.0134321384725 	-2.61907029503e-23
1.03567632089 	-0.0194203853037 	1.12295206287e-22
1.041259085 	-0.0267667733018 	-9.9320057987e-23
1.04817389583 	-0.0361092657653 	-1.37800829256e-22
1.05630628961 	-0.0487599645246 	-1.02796822542e-22
1.065167489 	-0.0660862848246 	1.30080740753e-22
1.07379624286 	-0.0905493571274 	-2.39182471512e-22
1.08023694522 	-0.126733197579 	-7.35544585533e-24
1.07948868039 	-0.185578260342 	-3.14753698951e-22
1.05399946787 	-0.299556577528 	-5.70230532457e-23
0.837851544517 	-0.570102956599 	-2.58886696965e-21
0.8977511094 	0.596581642218 	2.01094108537e-22
1.09607193174 	0.292917876126 	-1.98639082652e-21
1.10519068526 	0.16752710377 	-2.17861234008e-21
1.09319185785 	0.106903248951 	-6.56261636787e-22
1.07869134899 	0.0736381390741 	9.0797061449e-22
1.06558636717 	0.0532114474756 	4.74868423207e-22
1.05466338643 	0.039725423409 	-7.97296442535e-23
1.04586724866 	0.0300651889178 	-1.39326277083e-22
1.03895140416 	0.0228216786274 	-9.75564179084e-23
1.03362378192 	0.016940853905 	-1.24219206082e-23
1.02963808623 	0.0119495489085 	-3.71760241155e-23
1.02678514774 	0.00772665078875 	6.06356501266e-24
1.03279465387 	-0.00749482452125 	-4.02305301841e-23
1.03660286314 	-0.0120003728379 	4.38908459277e-23
1.04194856403 	-0.0172006371297 	3.48428915205e-23
1.04926343751 	-0.0237628528072 	-1.20662713651e-25
1.05865480362 	-0.0322451087342 	-1.47346996612e-23
1.07062159257 	-0.0439014682182 	-1.83762561127e-24
1.08535786591 	-0.0602428925078 	-3.9086269431e-24
1.10312635649 	-0.0837191747138 	1.96887147836e-23
1.12513252962 	-0.118536227282 	-3.69906233869e-22
1.15657514338 	-0.172437514356 	-1.79187270188e-22
1.22596774651 	-0.263672817046 	1.83882744806e-22
0.0441141412486 	0.00149184217462 	-2.12582003717e-21
1.28505707071 	0.231069061704 	-2.72313315512e-22
1.18500166059 	0.134514260796 	3.87170748415e-22
1.13385884333 	0.0861388959462 	1.10736764028e-21
1.10197747079 	0.0602200540366 	-3.36386717087e-22
1.08036200736 	0.0445996484844 	-4.06629934587e-24
1.06493113891 	0.034129722284 	8.90790161363e-24
1.05353892874 	0.0263815752926 	1.06812957455e-22
1.04508905982 	0.0202942028765 	-3.39227596982e-25
1.0387091349 	0.0152368532852 	7.13753993171e-23
1.03408645005 	0.0109178864412 	6.87982078112e-23
1.0308087188 	0.00692512013647 	-3.0078948055e-23
1.03644795938 	-0.00621429034646 	1.77383653306e-24
1.04086715793 	-0.00952232736813 	-3.30715295066e-23
1.04721162856 	-0.0136558939269 	-3.41571464916e-23
1.05595648534 	-0.0186731870657 	7.38886442858e-24
1.0675115216 	-0.0251998169859 	7.51578876124e-23
1.08295851221 	-0.0342573187931 	1.60008706618e-22
1.10290929136 	-0.0470949803226 	-9.39783075255e-22
1.12866113723 	-0.0656651178327 	4.03022758603e-22
1.16186367826 	-0.0920192203818 	1.32686367928e-21
1.20697589191 	-0.125620181151 	-8.26759524793e-21
1.26049497756 	-0.1453808355 	2.31468866602e-20
0.0873586119506 	0.000283588501709 	1.31815968088e-21
-0.000618928950124 	0.0169495680492 	-4.49248636259e-22
0.178793390658 	0.0424927623417 	-2.39629180405e-23
1.34053356475 	0.0740323481534 	-3.84594725049e-20
1.22642578134 	0.0576842646923 	1.19875725325e-20
1.15641974002 	0.045680947248 	1.11933080358e-21
1.11566527603 	0.0377813529329 	3.86736589339e-22
1.08965193363 	0.0315584472527 	1.62341937224e-21
1.07207163147 	0.0261582924423 	-2.77879674985e-22
1.05931495538 	0.0212870362148 	-2.48873082998e-22
1.05002460804 	0.0168557889567 	-1.11914862024e-23
1.04299536179 	0.0129434546502 	-4.86336426891e-23
1.0378519651 	0.00931882873027 	-9.63223116708e-23
1.03424393906 	0.00614801966092 	-1.84023734235e-22
1.0392868997 	-0.00434578714087 	-1.50953094387e-23
1.04394301721 	-0.00642185221814 	-1.25884659874e-22
1.05093494889 	-0.00912625233303 	1.91055618937e-22
1.0605796919 	-0.0120508803535 	-1.83515621567e-24
1.07366409293 	-0.0158060760115 	-2.7998701059e-22
1.09141113462 	-0.0208679938845 	-3.01311249491e-22
1.11518615739 	-0.0281471489668 	9.09207434278e-22
1.14654608622 	-0.039223654339 	3.34386594697e-21
1.18670970162 	-0.055946999944 	7.83670324304e-22
1.23441973111 	-0.0802352471494 	2.95251067032e-21
1.20839102676 	-0.0808456902284 	2.0639705912e-21
0.105210933713 	-0.0129062848195 	-3.12401871073e-21
-0.178072512242 	0.0457813664944 	-3.53189991825e-21
0.489721756064 	-0.0197132144347 	-8.82636623887e-21
1.31052243993 	-0.0774945075982 	-3.24713388792e-21
1.21628116671 	-0.0253889736814 	-3.73751848958e-21
1.15178780411 	0.00191689635399 	-1.35850140064e-22
1.11545684482 	0.0141880359789 	-4.70382276323e-21
1.09184001826 	0.0182091344264 	-1.42798327307e-21
1.07527553057 	0.0179299711563 	3.70321749482e-22
1.0629650578 	0.0158567523594 	4.51265010857e-22
1.05360093394 	0.0131108425167 	5.38135050964e-24
1.0463310862 	0.0103618482089 	-6.16589380568e-22
1.04089442417 	0.007517685848 	5.46334067218e-22
1.03718960013 	0.00502541542161 	4.85472325738e-22
1.04107904082 	-0.0023657537575 	-1.26535514692e-22
1.04573120254 	-0.00316473508419 	-4.20809736716e-22
1.05276305043 	-0.0041458367477 	-2.78970144252e-22
1.06257415094 	-0.00473973556861 	6.26413703912e-23
1.07600454737 	-0.00511716968991 	-6.52405992253e-22
1.09478904062 	-0.00516900888771 	4.66332512142e-22
1.12003833728 	-0.00549919309927 	-1.16724792722e-21
1.1541746031 	-0.00635666416181 	-9.13150227453e-23
1.20334960988 	-0.0123706729632 	-2.60379908704e-21
1.26442393016 	-0.028617098707 	-3.04731162463e-21
1.18158915776 	-0.0505292566976 	4.98400299204e-21
0.219413285317 	-0.197869842453 	6.64217650881e-21
-0.174917187814 	-0.341092445502 	5.36506851791e-22
0.597057823371 	-0.337802326986 	1.29127693277e-20
1.18770133784 	-0.207195208131 	-2.31030133063e-21
1.14900345485 	-0.0833783450438 	-2.45932154447e-21
1.12579055013 	-0.028513573999 	-1.8322375118e-21
1.10338709182 	-0.00145586130847 	2.87760981108e-22
1.08829183155 	0.00864128993098 	1.79941575285e-21
1.07566378193 	0.011443721017 	-6.51189437347e-22
1.06465145812 	0.0111021839831 	9.68319697174e-22
1.05593677197 	0.0095393042756 	-1.13451186003e-22
1.04874644452 	0.0077276338157 	7.33791626176e-22
1.04330491472 	0.00568164473555 	9.13085876374e-22
1.03954449639 	0.00378148605761 	-3.06611804429e-23
1.04161345911 	-0.000502480052383 	4.12658851349e-22
1.04612443521 	-0.00016855080316 	4.22134041943e-22
1.05258247292 	0.000623776187761 	-2.37436912564e-22
1.06177447396 	0.00233611408814 	-8.31261910242e-23
1.07431192061 	0.00540313002619 	3.02752540622e-22
1.0917508707 	0.0103222379825 	1.65872401861e-22
1.11676419093 	0.0191370193317 	-2.37537146219e-22
1.14924356529 	0.0271360126237 	7.82246429258e-22
1.20053151812 	0.0413592064518 	2.93667943719e-20
1.28526397349 	0.0499223088364 	2.56283358449e-21
1.23191034771 	0.0392515774967 	1.02200983728e-21
0.510642092031 	-0.199313296714 	4.64279618108e-21
-0.0516433875427 	-0.479856266907 	-3.6926604439e-22
0.435833676382 	-0.413692928846 	1.38807844387e-21
1.0005702352 	-0.203735442693 	-9.39068987829e-22
1.06482108244 	-0.0763226911172 	1.60064427081e-21
1.08614938567 	-0.0238225462873 	1.82492953728e-20
1.08698828162 	-0.0026619488873 	4.12843264677e-22
1.08313785164 	0.00511724727158 	2.4234193538e-21
1.074610891 	0.00742022424412 	-2.81498414217e-22
1.06543293615 	0.00734920933044 	-7.98792713426e-22
1.05742044679 	0.00631007239099 	1.67765745925e-22
1.05035964183 	0.00514850527019 	3.52231190833e-22
1.04505415541 	0.0037674612559 	-8.02527357293e-22
1.04116791443 	0.002462522993 	-6.97290858077e-22
1.04120539673 	0.00110310323591 	-6.2643581955e-22
1.04515221109 	0.00236116080399 	-2.57047725026e-22
1.05058838401 	0.00453651561771 	-5.85770639466e-23
1.05843228463 	0.00813471946688 	-2.48956808322e-22
1.06923055453 	0.0142761978817 	2.48823908546e-22
1.08301380036 	0.0244115112857 	-8.85841859744e-22
1.10117805062 	0.0369303992707 	-8.87589969273e-22
1.13011844029 	0.0608068098456 	-1.32957867022e-21
1.16921840491 	0.0965919055365 	4.2762590851e-21
1.25428441214 	0.152596678361 	7.71408396767e-22
1.24862878388 	0.217722229279 	-8.45282469519e-21
0.816433566144 	0.138330859857 	-6.7505231495e-21
0.181936411497 	-0.138580432815 	-1.13929510026e-21
0.22687288052 	-0.266984796289 	-4.49047890351e-22
0.837088296057 	-0.0790658288711 	1.723995707e-22
1.01447636591 	-0.00234257000399 	3.18954479849e-23
1.06464923344 	0.00462007216304 	1.07724102835e-21
1.08084714747 	0.00708891363326 	-4.58057086638e-22
1.0805723734 	0.00687038589821 	9.29916777955e-22
1.0748687922 	0.00428255088735 	9.74878612919e-22
1.06656129275 	0.00422590526807 	-1.44018953238e-21
1.05844381694 	0.00326264929573 	3.21841070177e-22
1.05132930428 	0.00252735773839 	9.78978470884e-23
1.04610049678 	0.00170455503894 	8.63568677501e-22
1.04219394074 	0.00109439735525 	3.94835420341e-22
1.04002041851 	0.00210392538458 	7.59286566808e-22
1.04317535633 	0.00402677316697 	-1.70170046233e-21
1.0473288271 	0.00689289545997 	1.0740984771e-21
1.05316386732 	0.0117661696258 	5.77008085113e-24
1.06020317817 	0.0189032172617 	1.95248552721e-21
1.068668272 	0.029811463915 	-4.76503980809e-22
1.08044106316 	0.0490656699369 	-1.92587315881e-21
1.09571141647 	0.0796975129115 	1.0449379501e-22
1.11298532717 	0.128555752558 	1.42641206709e-21
1.1515037949 	0.215322845689 	1.36295550614e-21
1.16695193614 	0.349887166596 	-9.03006624886e-21
0.912108801588 	0.427867903709 	1.27285616233e-22
0.43535335789 	0.299937889721 	-4.1444998393e-22
0.293424075475 	0.112828259011 	6.17580926187e-23
0.720849795234 	0.0664016556665 	3.86079662088e-21
1.02497563778 	0.0870895213836 	-4.58940547807e-22
1.08147758032 	0.0416428184405 	8.71652671909e-23
1.0902878274 	0.0190447740784 	7.46404766385e-23
1.08614952581 	0.00792957432874 	-1.33491415094e-21
1.07651992855 	0.00361952514631 	-6.12477918864e-22
1.06739943922 	0.000907853671321 	1.61059937429e-21
1.05880730279 	-0.000831664328286 	-1.47889573547e-24
1.05172744828 	-0.00029274260789 	-1.85458760435e-21
1.04650509356 	-0.000526565868453 	3.18881152585e-21
1.04239898122 	-0.000194776778312 	-1.08592561751e-22
1.03842612919 	0.00262066797776 	-5.88858457595e-22
1.04089704523 	0.00484168215674 	3.63281700747e-24
1.04369271433 	0.0074260795923 	2.0481405215e-21
1.04685084426 	0.0116942136653 	-1.1122793403e-21
1.0502505004 	0.0187077502175 	1.77972197429e-21
1.05430646582 	0.0303198740311 	-2.03783712309e-21
1.05534987554 	0.0496614043739 	2.31077690275e-22
1.05580964929 	0.0794321029172 	-1.449999116e-23
1.04762748358 	0.128671792324 	1.70710304477e-21
1.03436170643 	0.213584486315 	-2.12914937337e-21
1.01626390327 	0.353243572792 	2.55461780231e-21
0.861944708376 	0.465267994219 	2.17750531541e-21
0.539684585704 	0.494543980825 	-2.58695830665e-22
0.445390274666 	0.420133548139 	-3.48732664114e-22
0.752959782229 	0.251566649108 	-4.09509385936e-22
1.09729520485 	0.131326136254 	2.30663203703e-22
1.1374904157 	0.0564924518535 	-5.55808430169e-23
1.1124142115 	0.0171707615858 	3.963619312e-24
1.09621588485 	0.00328030829177 	2.95056826063e-22
1.08025484359 	-0.00285997025467 	-2.17206103472e-21
1.06841135101 	-0.00363399194766 	1.94551113382e-21
1.05836391335 	-0.00369309517889 	-2.9418769922e-22
1.05065178701 	-0.00420553710354 	-3.58083664661e-21
1.04616600957 	-0.0029734186978 	-8.02520491805e-23
1.04194567995 	-0.00161603461068 	7.41081668178e-22
1.03683871167 	0.00251344089489 	4.31668614229e-22
1.03862030869 	0.0044537721013 	-2.64536339367e-22
1.04010256845 	0.00623692885458 	-2.08291528711e-22
1.04184118772 	0.00967160355188 	1.19194568883e-22
1.04316528755 	0.0150521747513 	1.12882796041e-22
1.041464875 	0.023567765771 	5.52852756357e-22
1.03408657134 	0.0369193317758 	1.11144129633e-22
1.02191285606 	0.0598100503997 	5.27906497832e-23
0.988369342523 	0.0980010372931 	-7.97947371735e-23
0.941058668951 	0.161601762524 	-4.9195152705e-23
0.877576211929 	0.264144527922 	-3.68327800327e-22
0.743513173774 	0.395847510336 	-3.56804312899e-22
0.532678118448 	0.49818404992 	-5.18238119207e-22
0.563381409009 	0.444390161001 	1.21391867441e-21
0.944565797539 	0.191294271172 	1.40786641366e-21
1.20434973798 	0.055295188713 	2.08975860092e-22
1.19226958913 	0.0134160054375 	2.20441477278e-23
1.13306329158 	-0.00848031792851 	-8.609975211e-23
1.10257508013 	-0.0113429298064 	9.97916142677e-23
1.08280986813 	-0.0135974878781 	7.07301885442e-22
1.06724911341 	-0.0102888558788 	3.65255592226e-22
1.05713052389 	-0.00869868353866 	2.85929690521e-22
1.04924468657 	-0.00592519484964 	-3.95302389678e-22
1.04481530707 	-0.00466781022504 	-1.16251551195e-21
1.04044591382 	-0.00315382946345 	-8.06118793709e-22
1.03533075364 	0.00249070312939 	-9.92530430585e-22
1.03661386061 	0.00330519794524 	3.272255315e-22
1.03842802492 	0.00462292668371 	2.66796017098e-23
1.03950244944 	0.00630516222154 	3.09223289891e-23
1.03892213716 	0.00855271303368 	-5.42590805042e-23
1.03489596841 	0.0108764938022 	1.14547583795e-22
1.02499737028 	0.0131385297616 	-7.6800676162e-23
1.00232635748 	0.0202830516324 	9.78287932896e-24
0.94621403658 	0.0329728116463 	-1.6442359018e-23
0.87035974403 	0.0601317594044 	1.46213994227e-24
0.753069848554 	0.149816929606 	4.15011886101e-22
0.61197992369 	0.267267336709 	8.4953347069e-25
0.58767272491 	0.241688430626 	-3.78813082121e-22
0.800389839081 	0.0876672927465 	1.98878687668e-21
1.10341072991 	-0.0625319150519 	5.55280277212e-22
1.23973607704 	-0.092512123792 	2.01587346111e-23
1.2109509097 	-0.0617254656118 	2.12202725525e-23
1.12908353526 	-0.0511642896987 	4.47708797493e-23
1.09770458123 	-0.0325627078678 	1.07926315603e-21
1.07885204059 	-0.0254429645447 	-3.04350300086e-22
1.0630685095 	-0.0180094176924 	-4.57867985585e-22
1.05410243346 	-0.0126453941006 	6.51555935294e-23
1.04665967177 	-0.00917226760127 	-1.32010970232e-23
1.0415925003 	-0.00627339252596 	1.00484000252e-21
1.03848706371 	-0.00426935684698 	2.02519218102e-22
1.03452239122 	0.0013581629559 	-1.52787108144e-22
1.03622025375 	0.00206031715307 	-1.57737511783e-22
1.03803894477 	0.00231491101922 	7.1097582894e-23
1.03898843846 	0.00190201749335 	5.10454398163e-23
1.03847571289 	0.000231761742295 	2.98857358265e-23
1.03509764157 	-0.00367161486607 	-2.10601449707e-22
1.02430709453 	-0.0100822684059 	-3.07074151247e-23
0.998715102258 	-0.0220899954517 	5.50316533751e-22
0.943729635659 	-0.0439392245161 	-3.83815610882e-22
0.828593946549 	-0.0558038062508 	-3.85233534764e-22
0.697654756207 	-0.0438428732283 	4.48848505169e-22
0.642143707611 	-0.0686474927844 	0
0.720991531505 	-0.147819899056 	-2.83271713836e-35
0.919455055435 	-0.230269891989 	-4.49079889847e-24
1.10544466479 	-0.250924267452 	-9.82515048804e-22
1.17799860082 	-0.19450300782 	5.63665762599e-22
1.15287636632 	-0.121542785524 	8.6312583181e-22
1.10527950013 	-0.0748039757554 	-7.61752095461e-22
1.08002746929 	-0.0501013553295 	4.25344473309e-23
1.06674081462 	-0.0338974100554 	4.98080500635e-22
1.05543113882 	-0.0234886802651 	1.81405410822e-22
1.04794295203 	-0.0161526836538 	-1.39971815934e-23
1.04293028438 	-0.0110831232622 	1.86206203614e-22
1.03869718012 	-0.00725311461452 	-6.44441424839e-22
1.03599208461 	-0.00421577649212 	-6.01244262345e-22
1.03414353592 	0.00115631627203 	0
1.03636718692 	0.00155647053434 	0
1.03904133884 	0.0010962922327 	0
1.04179582036 	-0.000726307929588 	0
1.04419714677 	-0.00528967204634 	0
1.04581196908 	-0.0146960662524 	0
1.04410138925 	-0.0304784479552 	0
1.03254760775 	-0.0661435117056 	0
0.984776743542 	-0.123004470379 	0
0.858923238083 	-0.185641344033 	0
0.73156594741 	-0.236048530372 	0
0.693966304988 	-0.284586132894 	0
0.767642807191 	-0.330023052029 	0
0.927610425116 	-0.343228419252 	0
1.05664526176 	-0.302646929198 	0
1.09721469019 	-0.217347635319 	0
1.08665298971 	-0.135446770656 	0
1.06892461786 	-0.0848941450285 	0
1.05900278867 	-0.0571014448457 	0
1.05224169073 	-0.0380216655007 	0
1.04624674103 	-0.025482292776 	0
1.0417444588 	-0.0175719021111 	0
1.0383879329 	-0.0118155838569 	0
1.03554318768 	-0.00772169166197 	0
1.03357529024 	-0.00469984099966 	0
1.03365804881 	0.00121399386182 	0
1.03636757958 	0.0014530085696 	0
1.04013206621 	0.00095438302736 	0
1.04529816381 	-0.00106877620849 	0
1.0519997604 	-0.00549095904145 	0
1.06125660216 	-0.0161329499921 	0
1.07627103864 	-0.0335398875945 	0
1.09160979162 	-0.0713998201439 	0
1.06502320997 	-0.141324325386 	0
0.936096334667 	-0.235597560415 	0
0.789148596045 	-0.318936688586 	0
0.732987087652 	-0.37051917579 	0
0.773252470128 	-0.395302175979 	0
0.886306827402 	-0.376066308313 	0
0.975265623791 	-0.299936817714 	0
1.00674854384 	-0.204661518937 	0
1.02215268922 	-0.130745547439 	0
1.0319224051 	-0.0831973400177 	0
1.03649879673 	-0.0549248266972 	0
1.03688814205 	-0.0358672574508 	0
1.03643733663 	-0.0236750667742 	0
1.03526510273 	-0.0160971689723 	0
1.03368466371 	-0.0107309457725 	0
1.03223036165 	-0.00707496032567 	0
1.03107929893 	-0.00437542285852 	0
1.03326288548 	0.00162201433974 	0
1.03637605027 	0.00205838652005 	0
1.04112097602 	0.00228642471912 	0
1.04778509821 	0.00140268628268 	0
1.05815985645 	0.000154172713735 	0
1.07319106288 	-0.00531331289416 	0
1.09923980362 	-0.013532642321 	0
1.13892962637 	-0.0289571308056 	0
1.1495024154 	-0.0689846235853 	0
1.04040322552 	-0.154581914232 	0
0.866158030191 	-0.264194935321 	0
0.768566736212 	-0.339878710356 	0
0.766246700166 	-0.365909911586 	0
0.821877385783 	-0.334566878627 	0
0.879185650306 	-0.250437723871 	0
0.923163872155 	-0.165401146142 	0
0.964804224993 	-0.107021636071 	0
0.994607232517 	-0.0673372413355 	0
1.01293538852 	-0.0421034273719 	0
1.02224884737 	-0.0267087600001 	0
1.02731924795 	-0.017574073699 	0
1.02946913452 	-0.011803598362 	0
1.02974367482 	-0.00803065237989 	0
1.02942185015 	-0.00545696141224 	0
1.02885261435 	-0.00344676222657 	0
1.03257803342 	0.00234879102947 	0
1.03581840671 	0.00347354588636 	0
1.0409927138 	0.00505610821805 	0
1.04778630433 	0.00633178396587 	0
1.05928777059 	0.00906447444957 	0
1.07566866435 	0.0113104642992 	0
1.10157663752 	0.0158468727957 	0
1.14772510091 	0.0259264434446 	0
1.19026856255 	0.0353520772142 	0
1.13531068536 	0.0113412483217 	0
0.978949577009 	-0.0706657334817 	0
0.838809367671 	-0.159170020649 	0
0.77194640642 	-0.197889503703 	0
0.769987871706 	-0.180054992177 	0
0.803834941892 	-0.127071838259 	0
0.861085987941 	-0.0765185739686 	0
0.923118516274 	-0.0439607742668 	0
0.966266749629 	-0.0249931356748 	0
0.994602744003 	-0.0146270576617 	0
1.01169075056 	-0.00940696320502 	0
1.02096503368 	-0.00695916325632 	0
1.0255106346 	-0.00521686226054 	0
1.02713664544 	-0.00405154731052 	0
1.02748483369 	-0.00303648665995 	0
1.02721486006 	-0.00202772889794 	0
1.03110745008 	0.00318912760458 	0
1.03397626033 	0.00512895919021 	0
1.03866657263 	0.00802787813625 	0
1.04449459005 	0.0115111063102 	0
1.05439509957 	0.0172348684289 	0
1.06801753828 	0.0254170552119 	0
1.08707853215 	0.0387026200084 	0
1.12235221656 	0.0624917528495 	0
1.16525806692 	0.102207663911 	0
1.15022525764 	0.141201926814 	0
1.04854375656 	0.136156447869 	0
0.909628164455 	0.0913666501467 	0
0.798362381736 	0.0575456828796 	0
0.759287153101 	0.0443111115606 	0
0.778031078304 	0.0457330277674 	0
0.837750101974 	0.0531241232081 	0
0.91188727552 	0.0512048922219 	0
0.964128102632 	0.0387786359249 	0
0.995596105771 	0.0232392920356 	0
1.01329693877 	0.0124714814945 	0
1.02192375631 	0.00575354012238 	0
1.02580224219 	0.00213554298579 	0
1.02698216104 	0.000301801820726 	0
1.02703529763 	-0.000436535542336 	0
1.02660503607 	-0.000527418088148 	0
1.02890087331 	0.00372185794178 	0
1.03100251699 	0.00610035102938 	0
1.03444207045 	0.00964803122632 	0
1.03857524703 	0.0144796590039 	0
1.04530172302 	0.0219426929356 	0
1.05415716326 	0.0336385016501 	0
1.06496123767 	0.051592221317 	0
1.08356310167 	0.0803815547822 	0
1.1076192155 	0.129583889493 	0
1.09822249279 	0.193602968089 	0
1.03311713713 	0.24240137523 	0
0.924570770141 	0.255641868089 	0
0.822188932001 	0.244449651486 	0
0.781159144591 	0.219044059061 	0
0.793964455386 	0.19179060537 	0
0.85368345665 	0.167528926435 	0
0.936260824923 	0.135135685139 	0
0.994568850577 	0.0924461171052 	0
1.02124694225 	0.0533175368978 	0
1.02968799803 	0.0292043112833 	0
1.03136649768 	0.0152801205058 	0
1.03097019621 	0.00761553023634 	0
1.02958840494 	0.00345576260373 	0
1.0281912726 	0.00135084308663 	0
1.02697443317 	0.000475788941388 	0
1.02655085969 	0.00350847526382 	0
1.02782343383 	0.00578482692548 	0
1.02974842663 	0.00921807223575 	0
1.03174033763 	0.014328603541 	0
1.03448475364 	0.0224520543905 	0
1.03754367192 	0.0357631600491 	0
1.03954772776 	0.0566209492952 	0
1.04228730936 	0.0879324166756 	0
1.04567192879 	0.137824982721 	0
1.02687525969 	0.204604505421 	0
0.978943032604 	0.274029139062 	0
0.90466792442 	0.317083633364 	0
0.834735680359 	0.319345603299 	0
0.811390605912 	0.297287441417 	0
0.82873156787 	0.264030966677 	0
0.894473040415 	0.222199520726 	0
0.986641104306 	0.166919842348 	0
1.04677334757 	0.104255956775 	0
1.06064195004 	0.0576956495041 	0
1.05280538526 	0.0320955821926 	0
1.04443433308 	0.0171539260344 	0
1.03824734088 	0.00905787949465 	0
1.03355630216 	0.00435945877451 	0
1.03018004298 	0.00187333697222 	0
1.02782692012 	0.00078376009621 	0
1.02467028811 	0.00248177966042 	0
1.02524871173 	0.00416609816838 	0
1.02573405193 	0.00680621790837 	0
1.02540478646 	0.010917337373 	0
1.02379100085 	0.0178400484088 	0
1.0201170911 	0.0295736335223 	0
1.01261677461 	0.0493061193916 	0
1.00208881092 	0.0781093487068 	0
0.988343527586 	0.121858202814 	0
0.955417609373 	0.181472850584 	0
0.914266857983 	0.249987119757 	0
0.873634983824 	0.305033768566 	0
0.839352729577 	0.318658120884 	0
0.83536624798 	0.301823165076 	0
0.866860083283 	0.264414325369 	0
0.951834557643 	0.203000294153 	0
1.05561817844 	0.128408439858 	0
1.10337660523 	0.0671580934148 	0
1.09406665839 	0.0359908743887 	0
1.07103642291 	0.020765479983 	0
1.05474497277 	0.0111604191338 	0
1.04398387066 	0.00618249774752 	0
1.03686277403 	0.00301162093094 	0
1.03190042548 	0.00133440272883 	0
1.02861680213 	0.000535296663413 	0
1.02358982796 	0.00106525901197 	0
1.02369524384 	0.00173960829024 	0
1.02317141856 	0.00282610046262 	0
1.02108856496 	0.00438516827198 	0
1.01609529218 	0.00722880846964 	0
1.00654830266 	0.0123381791649 	0
0.991074600973 	0.0227979342926 	0
0.97046656593 	0.0392916877155 	0
0.942061940903 	0.0676132036144 	0
0.896051672601 	0.110234126638 	0
0.85405785209 	0.158245754041 	0
0.835373850602 	0.206763391103 	0
0.836372520117 	0.229489597853 	0
0.864468512847 	0.216535940889 	0
0.928654776299 	0.16765877771 	0
1.03162032095 	0.0938685461837 	0
1.12176535246 	0.0337505438208 	0
1.13814497517 	0.00666027433517 	0
1.10709453403 	0.0031920859208 	0
1.07804348574 	0.00226775893059 	0
1.0589968529 	0.000744400882779 	0
1.04631164096 	0.000389614664336 	0
1.03825169549 	-9.54578757888e-05 	0
1.03257777643 	-0.000131013393761 	0
1.02894544713 	-0.000166370910255 	0
1.02343508443 	-0.000351305085602 	0
1.0235566667 	-0.000896054936077 	0
1.02304286361 	-0.00189619202035 	0
1.02097371537 	-0.00385228420835 	0
1.01564552277 	-0.0070780236511 	0
1.00441761032 	-0.0122858140159 	0
0.985238353205 	-0.0183925673406 	0
0.95759169166 	-0.0225258939035 	0
0.917197657209 	-0.0170729904054 	0
0.863419003498 	-0.00109948149474 	0
0.820686251174 	0.0137870801233 	0
0.809905025609 	0.0282375626079 	0
0.836446499703 	0.036376137109 	0
0.901796528605 	0.0268861017902 	0
0.99522376858 	-0.0083715732819 	0
1.09013483363 	-0.0506107700342 	0
1.14300213662 	-0.0605651400404 	0
1.13401253408 	-0.043862550786 	0
1.09960517998 	-0.0255584265317 	0
1.07432184227 	-0.0153536696256 	0
1.057115044 	-0.00977188254417 	0
1.0451073688 	-0.00600182800294 	0
1.0374848817 	-0.00386624203222 	0
1.03198314443 	-0.00224234724145 	0
1.02855748636 	-0.0012940020578 	0
1.02425463545 	-0.00156516375002 	0
1.02510541058 	-0.00313693530248 	0
1.02588209771 	-0.0059477044727 	0
1.02606779416 	-0.010858064544 	0
1.02430841548 	-0.0192413536764 	0
1.01771451811 	-0.0334422505722 	0
1.00073577159 	-0.0559561997449 	0
0.96898516704 	-0.0820382351368 	0
0.919789330938 	-0.100484364849 	0
0.862632785906 	-0.111283573702 	0
0.823738158606 	-0.123986927666 	0
0.814975411754 	-0.139995598668 	0
0.843743107433 	-0.152676473801 	0
0.916949858858 	-0.157057039291 	0
1.01119809387 	-0.156323046387 	0
1.0870500796 	-0.146551936224 	0
1.11557956929 	-0.115541275603 	0
1.10250864945 	-0.0751512587418 	0
1.07946882981 	-0.045679485143 	0
1.06294975611 	-0.0285438399317 	0
1.05020250273 	-0.017805380418 	0
1.04082816354 	-0.0109917749697 	0
1.03476936454 	-0.00686593464233 	0
1.03022415709 	-0.00407375686968 	0
1.02738981891 	-0.00237370637026 	0
1.0258774687 	-0.00224062647338 	0
1.02795806098 	-0.00427677117494 	0
1.03079298789 	-0.00780644179108 	0
1.03449015739 	-0.0137807681904 	0
1.03867373498 	-0.0238279760151 	0
1.0416533466 	-0.0410931315613 	0
1.03387515463 	-0.0707966454008 	0
1.00230565177 	-0.112436095925 	0
0.946758265228 	-0.151200067106 	0
0.885913808791 	-0.181335652991 	0
0.84755164417 	-0.209366088007 	0
0.836480736487 	-0.233355744082 	0
0.852318455046 	-0.249781398994 	0
0.906306594763 	-0.249162799506 	0
0.983221085964 	-0.22733186648 	0
1.04630855509 	-0.187778360734 	0
1.06804507433 	-0.137384952245 	0
1.06128606357 	-0.0911664513919 	0
1.05288756606 	-0.0577537758571 	0
1.04626668865 	-0.0360863784037 	0
1.0394891185 	-0.0219964857716 	0
1.03415762904 	-0.0132877074793 	0
1.03053407081 	-0.00804205021775 	0
1.02756724179 	-0.00469772788354 	0
1.02563611565 	-0.00269554723099 	0
1.02767834534 	-0.00209846084849 	0
1.03089548324 	-0.00389539010698 	0
1.03564137616 	-0.00683848771597 	0
1.04252693769 	-0.0117523759708 	0
1.05233688241 	-0.0196391040165 	0
1.06541249396 	-0.0334345706967 	0
1.07263698567 	-0.0573019950409 	0
1.04964467593 	-0.100821728325 	0
0.989379724932 	-0.154273950083 	0
0.920421558189 	-0.199385471688 	0
0.875539830908 	-0.235756031312 	0
0.856682802661 	-0.259763732112 	0
0.8586192925 	-0.273125220754 	0
0.890662855597 	-0.268601448055 	0
0.942006360179 	-0.237451304785 	0
0.991535935459 	-0.186599778844 	0
1.01669484309 	-0.131617319575 	0
1.02063897069 	-0.0887128469876 	0