1.01388995681 	-0.00795788693684 	-1.04014408736e-21
1.01497768393 	-0.0123424363769 	-8.06561856416e-22
1.01625609342 	-0.0171840970643 	3.24569708968e-22
1.01772069762 	-0.0227970662417 	-2.26555103904e-23
1.01904658645 	-0.0293008599633 	-3.2993512662e-22
1.01975159073 	-0.0370065770357 	-2.02544515389e-22
1.01881030403 	-0.0457303235703 	-2.26525519299e-22
1.01452755142 	-0.0545232314344 	-1.23765779272e-21
1.00500655447 	-0.0648874625754 	1.82841550356e-20
0.985995102752 	-0.06993967033 	1.4832808665e-21
0.958406579382 	-0.063949051889 	7.05731914917e-23
0.929626198538 	-0.038472491326 	1.94730478045e-21
0.916404551932 	0.00537224943521 	-4.67444378632e-24
0.930442716998 	0.0490359232562 	2.1118414481e-22
0.959998107681 	0.0737051580601 	-1.603925634e-21
0.988118570507 	0.0785817547465 	1.92291960227e-21
1.00749779013 	0.0720602010133 	2.03453290841e-20
1.01707567245 	0.0597164637628 	-1.64460268415e-21
1.02131471498 	0.0497651029543 	-1.71801452147e-21
1.02183383474 	0.0396263728248 	3.62950842494e-22
1.02069981019 	0.0308753116762 	8.99735764065e-22
1.01893852209 	0.0236385563399 	-2.98486974813e-23
1.0170709737 	0.0175503403614 	-4.68614238523e-22
1.01547931939 	0.0124424709763 	1.11472692443e-21
1.01416597078 	0.0078845471321 	1.12275394751e-21
1.01829464452 	-0.00854471255805 	3.26584222246e-22
1.01982206028 	-0.0132585716068 	6.73720096304e-22
1.02181554627 	-0.0187090749419 	3.3435780301e-22
1.02418596704 	-0.0250288558259 	-9.57201938293e-23
1.02671187444 	-0.0325920469276 	5.07722980029e-22
1.02887004597 	-0.0419350613674 	-2.07854492359e-22
1.02968770727 	-0.0534807497282 	3.42223447325e-22
1.02729035189 	-0.068115060638 	1.38253187336e-22
1.01763152818 	-0.0860872687474 	-5.03793469935e-22
0.994088512224 	-0.103762201504 	-2.23274282343e-21
0.947634244252 	-0.111666086176 	-3.408556252e-21
0.881477781317 	-0.0810152731473 	9.82653503546e-21
0.844863073834 	0.00636875965102 	1.66932785199e-22
0.883048743616 	0.0930813814069 	9.90052163152e-21
0.950118884736 	0.122827687631 	-8.88104570356e-21
0.997714363712 	0.113774980979 	-2.41400393847e-21
1.02202068465 	0.0942145771685 	-5.62167305601e-22
1.03183084376 	0.074116566162 	-3.65121289387e-22
1.03382901029 	0.0573834601884 	-8.64895850424e-22
1.03233081711 	0.0442053997363 	4.24835594631e-22
1.02932517917 	0.0336792320748 	-9.44340708375e-22
1.0259792169 	0.0253771549316 	1.6825399969e-22
1.02296287671 	0.0186529829479 	-7.70790420093e-22
1.02046398686 	0.0130404284452 	-1.01728642412e-21
1.01859628034 	0.00828636949351 	-7.90702186816e-23
1.02288951661 	-0.00883638515585 	6.98683678699e-24
1.02501721899 	-0.0136212489792 	2.05439462113e-22
1.02784893836 	-0.0194076762634 	-1.56961167356e-22
1.0313763995 	-0.0261574135158 	4.95814099597e-26
1.03557544337 	-0.0344139352109 	1.04681014371e-22
1.04010449025 	-0.0449571237043 	9.58425801582e-24
1.04424512454 	-0.0588115418831 	-6.05625269536e-23
1.04646131565 	-0.0779080934667 	-3.09092565065e-22
1.04312191237 	-0.105078517827 	2.36671344332e-23
1.02459998172 	-0.145027869264 	6.34069922231e-22
0.96397612243 	-0.194817034571 	1.18405423009e-20
0.808679021497 	-0.201603749233 	-2.00405449974e-21
0.667651069802 	0.00736631797723 	-2.65821113361e-21
0.812070427486 	0.213321513481 	-3.84810245571e-21
0.966673109944 	0.206287529802 	1.31240474653e-20
1.02975367681 	0.156143771217 	-8.52422371206e-22
1.04998939164 	0.113645727762 	-5.80169110886e-23
1.05360714627 	0.0833319489831 	1.35457101004e-21
1.05050518248 	0.0615108599854 	4.83095528972e-22
1.04497992334 	0.0458611330952 	-1.80296720168e-22
1.03901554136 	0.0342501609724 	-2.13349614634e-22
1.03360760092 	0.025495119136 	2.59067278295e-24
1.02916928219 	0.0185838810419 	4.85616211851e-22
1.02565972772 	0.0128550117717 	-5.27399605466e-22
1.02308618961 	0.00823416893453 	-5.431875555e-22
1.02759218112 	-0.00868305858945 	1.09737515265e-23
1.03032599632 	-0.0134421548083 	2.49045746159e-23
1.03404759091 	-0.0191397544261 	3.16533883496e-23
1.03891880665 	-0.0259103528216 	5.67203754426e-23
1.04499055659 	-0.0342145606365 	6.85863839543e-23
1.05234833363 	-0.0450501423419 	3.6620824869e-23
1.06099450597 	-0.0595758502964 	-3.68827914783e-22
1.07080290098 	-0.080267122901 	-4.10316956432e-22
1.08122979715 	-0.112436856208 	7.0011943699e-22
1.08887481875 	-0.169649344974 	-1.66332010707e-21
1.07570671023 	-0.290093223158 	1.46178605335e-21
0.865210546897 	-0.584712271231 	-6.19828039483e-23
0.870680164157 	0.582899458821 	1.31148948755e-21
1.07497951824 	0.302378897195 	-4.61584248593e-22
1.09608456891 	0.183080256294 	-4.36215100996e-22
1.09217349334 	0.120835018498 	-1.62477542525e-22
1.08153195194 	0.0837168343465 	4.70003684295e-22
1.0696117912 	0.0596214095154 	2.5331061359e-23
1.05850037054 	0.0434065437152 	4.6702215565e-23
1.04896681927 	0.0319592185253 	7.04653228222e-23
1.04123316605 	0.0236881208483 	4.03060623576e-23
1.0352086694 	0.0172293611259 	-8.26406724174e-23
1.03069607057 	0.0119438598744 	1.14297321469e-23
1.02745650844 	0.00764459225276 	-1.07826484517e-23
1.032159811 	-0.00794109276288 	1.48760626039e-23
1.03546837826 	-0.0126015244457 	-4.67693769054e-23
1.0400631796 	-0.017834179058 	-4.97057998645e-23
1.04626627663 	-0.0241562025246 	1.38830371122e-24
1.05416570022 	-0.0318998981443 	-8.74259697363e-23
1.06429522864 	-0.0418137860826 	-6.262284924e-24
1.07726736626 	-0.054739260836 	-7.58068018191e-24
1.09452493614 	-0.0723506505855 	3.7557301522e-23
1.11995671681 	-0.0984986504864 	-6.17966807279e-22
1.16351020546 	-0.143039821025 	-2.92835849336e-22
1.25960300564 	-0.231957767001 	2.58639053709e-22
0.0372263194723 	0.00150397832289 	-1.65512384887e-21
1.25291792092 	0.262130598448 	-1.93212302619e-22
1.17832921145 	0.163004892906 	2.60294145918e-22
1.1387807954 	0.105621140932 	7.12750566668e-22
1.11022154456 	0.0713936753004 	-2.0793176525e-22
1.08819732132 	0.050088268381 	-2.37993933232e-24
1.07109609479 	0.0362819484023 	3.52303873209e-24
1.05793161865 	0.0268015648563 	4.23686130679e-23
1.04803027123 	0.0199676210061 	-1.00270384793e-25
1.04055728442 	0.014660201194 	-6.40556407479e-24
1.03519052464 	0.0103503007371 	-1.3375013512e-23
1.03142441352 	0.00649846073586 	2.42549320546e-23
1.03615391984 	-0.0070875707081 	-5.10176148845e-24
1.04004472188 	-0.0108891471313 	6.95885585302e-23
1.0455029283 	-0.0155176611062 	2.80137656738e-23
1.05285103906 	-0.0209218394791 	1.45471505898e-23
1.06224292665 	-0.0275385559469 	1.63354230843e-22
1.07446019887 	-0.0356778121368 	2.45367955994e-22
1.09007110057 	-0.0454602118693 	-1.3928260513e-21
1.1111721702 	-0.0567579613845 	4.11188028677e-22
1.14240309771 	-0.0685789180178 	1.83994914979e-21
1.19701727801 	-0.0776511871095 	-1.13833581397e-20
1.29579623886 	-0.0739897684115 	3.32752208175e-20
0.167868636171 	-0.0204263766401 	1.99781173587e-21
-0.000481592900658 	0.000248274775489 	-4.15114433021e-22
0.0988923935074 	0.0354314591154 	1.18838036431e-22
1.30935553947 	0.143486493963 	-2.7776365153e-20
1.23594524626 	0.103635058371 	9.2072504486e-21
1.17495374042 	0.0684246142018 	9.07114495809e-22
1.13246621936 	0.046683135891 	1.76651541319e-22
1.10212599743 	0.0333543219982 	1.1994956453e-21
1.08040731263 	0.0249191917581 	-1.99289782272e-22
1.06451050767 	0.0190927352454 	-1.44846044788e-22
1.05310099581 	0.0147066935072 	-6.88560404608e-24
1.04469086959 	0.0111631380064 	1.1237183841e-23
1.03866886137 	0.00802004399501 	-1.17779712785e-24
1.03453317701 	0.0053217061296 	-2.50203082157e-23
1.03960268192 	-0.00563845282202 	2.2816002204e-23
1.04384286425 	-0.00854815750025 	-4.68201888723e-22
1.05002123595 	-0.0123107025028 	5.37658182611e-22
1.05829042628 	-0.0164735869128 	-4.19733901476e-24
1.06879378232 	-0.0216901198731 	-4.16335233317e-22
1.08212838604 	-0.0278113320846 	-4.02909221067e-22
1.09866431371 	-0.0345378958571 	1.12277439489e-21
1.11870504178 	-0.0401894029955 	3.70829443038e-21
1.14397569204 	-0.0401732369098 	9.4441402378e-22
1.17972356856 	-0.0210344919535 	3.3515308088e-21
1.21253567708 	0.0511112375026 	3.56069752415e-21
0.290002600238 	0.173290998717 	-5.08801032082e-21
-0.185963569817 	0.260926137299 	-3.11561253777e-21
0.314052869352 	0.164032467112 	-5.46270444424e-21
1.31227421678 	0.0504657565764 	-2.01890315969e-21
1.26694405501 	0.0302671832607 	-3.42468849535e-21
1.19217554013 	0.0176099701902 	-1.08785228716e-22
1.14226099733 	0.0138729717307 	-4.30761944186e-21
1.10802412093 	0.0123272094657 	-1.20352825417e-21
1.08452600929 	0.011279779363 	2.94981669769e-22
1.06783826825 	0.0101330350798 	3.29871686827e-22
1.05589288545 	0.00875366657925 	2.95802312147e-24
1.04724970332 	0.0072217489917 	-2.96677454645e-22
1.04100156783 	0.00540007267986 	2.27805121604e-22
1.03689152748 	0.00376653417227 	1.72793042205e-22
1.04221803404 	-0.0039070375562 	-3.63894603782e-22
1.04673901992 	-0.0058491978534 	-9.6566329725e-22
1.05335340695 	-0.00841405516144 	-6.35606619882e-22
1.06228421161 	-0.0111562736217 	9.96370703351e-23
1.07349728011 	-0.0147568835404 	-8.33464901618e-22
1.08789937063 	-0.018993243747 	5.14244037008e-22
1.10415446037 	-0.0238019024605 	-1.24628850327e-21
1.12133214385 	-0.0277475941539 	-8.06012777971e-23
1.13690897506 	-0.0260674077145 	-1.99369214529e-21
1.13819863286 	-0.00951269277797 	-2.42426566872e-21
1.05134574383 	0.0809063236417 	3.45972747201e-21
0.141896330508 	0.294595468262 	7.9126728414e-21
-0.138684160861 	0.309729643483 	6.13805838108e-22
0.604631557733 	0.0842409679744 	1.36776568718e-20
1.31894955067 	-0.0866328979331 	-2.35831254126e-21
1.26342363667 	-0.0641230238641 	-2.66601891123e-21
1.18820087106 	-0.0394249182196 	-2.10298085206e-21
1.13545639478 	-0.0208773121795 	3.21400675758e-22
1.10435611183 	-0.00875850797743 	1.70744308399e-21
1.08274074117 	-0.00201056831271 	-6.00775578796e-22
1.0673160849 	0.00157626481558 	7.83791441059e-22
1.05626312082 	0.0031155761149 	-7.64086697999e-23
1.04816564061 	0.00344739355315 	3.94977184047e-22
1.04227823542 	0.00293286522992 	4.90159398271e-22
1.03840691973 	0.00224382498249 	1.5881136854e-23
1.04377170804 	-0.00201533634062 	1.05111040457e-21
1.0485386218 	-0.0029681580386 	8.87746774476e-22
1.05529759795 	-0.00407409679065 	-3.68459637383e-22
1.06466119305 	-0.0051637048314 	-1.3327455125e-22
1.07642936637 	-0.00691301348305 	4.5723575284e-22
1.09127639525 	-0.00929807311615 	1.92942194667e-22
1.10925464131 	-0.012102556275 	-2.1667377782e-22
1.12549618506 	-0.0192591942076 	5.32081024468e-22
1.13855761692 	-0.0278052046386 	1.68114416315e-20
1.12476819101 	-0.0418878759855 	6.37826320576e-22
0.907119872753 	-0.00416999465518 	-3.68330614689e-23
0.0571294352622 	0.0693825985973 	1.30050858112e-21
0.0702063829014 	-0.0903721851681 	-4.52743893152e-22
0.839459711311 	-0.275051481073 	2.81866665497e-21
1.26309661192 	-0.262763802393 	-2.58773171329e-21
1.20588656024 	-0.152482056079 	3.33314718254e-21
1.14857195683 	-0.0855285665537 	2.92273929093e-20
1.1129990008 	-0.0459438554925 	6.04907466565e-22
1.09228248604 	-0.0258059969148 	2.76131100392e-21
1.07567842536 	-0.0120236097666 	-2.58380431022e-22
1.06356676101 	-0.00505189449153 	-6.06717983418e-22
1.05458589129 	-0.00126606160106 	1.15493646846e-22
1.04768066811 	0.000439343402522 	2.38912885864e-22
1.042661535 	0.000997340238321 	-4.4413711974e-22
1.0390418242 	0.00102002393453 	-3.3498432966e-22
1.04431526804 	7.08353518128e-05 	-1.35113627061e-21
1.04902516497 	0.000214229388199 	-5.095413996e-22
1.05567149474 	0.000489566739844 	-1.19838242188e-22
1.06517305679 	0.00124192374914 	-3.65748380409e-22
1.0777496906 	0.00182998968519 	1.72847415784e-22
1.09268550311 	0.00349496464586 	-9.58276640883e-22
1.11182596554 	-0.000224444775305 	-9.1398378979e-22
1.13616494437 	-0.00545883946326 	-8.59458457781e-22
1.16200596656 	-0.0200800140159 	1.97507856582e-21
1.16945726563 	-0.0731138160829 	-4.65855367889e-23
0.879597415137 	-0.119368709635 	-6.31381436171e-22
0.197811592367 	-0.297515908216 	-1.79350591382e-22
0.257908851353 	-0.457875272928 	-9.58734992938e-22
0.837456652452 	-0.470633877259 	3.93871678472e-21
1.11256861655 	-0.342786580222 	-2.94839807994e-21
1.09488415137 	-0.189110823283 	1.35782966914e-21
1.09001236497 	-0.104862635178 	3.27192008273e-21
1.08064951304 	-0.057964517039 	-8.6956739554e-22
1.0717473173 	-0.0306684600736 	9.6901658141e-22
1.06582290676 	-0.0168998543224 	9.1292017432e-22
1.05820215908 	-0.00844021604883 	-1.29719502488e-21
1.05169081969 	-0.00371152400432 	2.25493748666e-22
1.04630409733 	-0.00141904434529 	4.39137769458e-23
1.04224613197 	-0.000376326499499 	4.82497191688e-22
1.03910132964 	8.12871770611e-05 	1.95127853967e-22
1.04366274132 	0.00177443515752 	1.62904510932e-21
1.04814243622 	0.00351181439865 	-3.1703174094e-21
1.05434012805 	0.00492996918595 	1.77823645473e-21
1.06306520097 	0.00829514106219 	7.30556132137e-24
1.07506176168 	0.0105906574391 	2.44164629413e-21
1.0906141772 	0.0135364609546 	-5.99414372783e-22
1.11246070106 	0.0187406461057 	-1.95205064728e-21
1.14173875363 	0.0189057024727 	1.13317646736e-22
1.19345489178 	0.0160213213162 	1.12501923116e-21
1.235224283 	-0.0234802924081 	6.68736971724e-22
1.05796051862 	-0.0920066434627 	-5.76042951103e-21
0.408306619705 	-0.426466843357 	1.23756229588e-22
0.312744500473 	-0.551742730107 	-3.72025977108e-22
0.719402346127 	-0.444203980605 	4.98896715677e-23
0.94222949482 	-0.29179081591 	-2.8638398066e-21
0.989325409173 	-0.158957762416 	4.45497630082e-22
1.02986139368 	-0.0876338808387 	6.05276656516e-22
1.0479865245 	-0.047238760864 	8.59217491197e-23
1.05462399975 	-0.0260429931657 	-1.54224172747e-21
1.05424408374 	-0.0138602217195 	-5.07702903755e-22
1.0521470497 	-0.00785891751737 	1.31459289839e-21
1.04878265209 	-0.0041153722485 	-1.21621131913e-24
1.04473283191 	-0.00201361910045 	-1.16167684868e-21
1.04145531149 	-0.00110461270903 	1.81186731006e-21
1.03878150003 	-0.000454995988121 	-3.83854886371e-23
1.04212035995 	0.00329926108685 	-1.23998322765e-21
1.04624386852 	0.00632997571248 	6.08938482035e-23
1.05084357622 	0.00925447948205 	3.63155625556e-21
1.05863863813 	0.0124816048972 	-1.75402929835e-21
1.06958992544 	0.0185114148545 	2.5891669239e-21
1.08328917876 	0.0266136115114 	-2.85053895797e-21
1.10590447345 	0.0384000413337 	3.22670453361e-22
1.1325852827 	0.0525497056031 	-1.12659706756e-23
1.19565258396 	0.0732216397948 	3.09874257618e-21
1.25938678797 	0.0989181514546 	-3.86484900417e-21
1.15714159857 	0.095637171616 	5.06155020361e-21
0.735667625761 	-0.0860449936015 	4.2892284832e-21
0.400044966929 	-0.320591464522 	-2.25158829533e-22
0.513595219217 	-0.343200974547 	7.2848841589e-23
0.801761681891 	-0.151602130553 	-2.11884332592e-22
0.919017942798 	-0.0712647053917 	3.14563657971e-22
0.985632434074 	-0.0410610870634 	-2.80318085284e-22
1.0275223907 	-0.0205135608691 	6.2523340732e-24
1.04259847408 	-0.0117601023371 	2.06114719069e-22
1.04866150027 	-0.00699826662427 	-1.45262029162e-21
1.04849202635 	-0.00414329531936 	1.25629822368e-21
1.04615877012 	-0.00276886046405 	-2.30055639142e-22
1.04350681299 	-0.00234847774136 	-1.98853185891e-21
1.04079345595 	-0.00136878473136 	-8.95020931766e-25
1.03835573127 	-0.000787245952795 	3.74527286879e-22
1.03961618766 	0.0044923062606 	1.03872920833e-21
1.04318353607 	0.00749047491153 	-5.84294044063e-22
1.04677978413 	0.010839920809 	-4.0145757249e-22
1.05257909417 	0.0163771537697 	3.16765412006e-22
1.06120806991 	0.0244011358853 	1.97692786964e-22
1.07179134863 	0.0362875189958 	1.10351747976e-21
1.0878398315 	0.0539527974672 	1.5691865405e-22
1.10541392916 	0.0796959935588 	-1.21593106654e-22
1.14723650259 	0.121360926033 	-1.97220901984e-22
1.20183487993 	0.199867437982 	2.0532347821e-22
1.15162061937 	0.275895386918 	-2.21696462182e-21
0.919200763329 	0.275448975893 	-2.13966622628e-21
0.595173518022 	0.110426672854 	-5.73321571991e-22
0.502271187422 	-0.0361695319052 	-4.03063547582e-22
0.669641616811 	-0.0207804570111 	-3.91376583964e-22
0.892957515683 	0.0434165670228 	-1.83428689223e-22
0.982894440945 	0.0281304193267 	1.39787102982e-23
1.02671462739 	0.013346609924 	1.42810522307e-22
1.04380130313 	0.00674104285345 	8.63985463554e-23
1.04894381337 	0.00130056747759 	2.20647541658e-22
1.04893634365 	-0.000721037511926 	2.20335067639e-22
1.04641075566 	-0.00133368734236 	1.37363235559e-22
1.04272832092 	-0.00145579884493 	-1.75673721724e-22
1.04026948242 	-0.00151135972451 	-5.50414390107e-22
1.03769179855 	-0.00132334102394 	-3.49357682541e-22
1.0367902907 	0.00499455720869 	-2.84070595569e-21
1.03893831011 	0.00778558982243 	9.34149922711e-22
1.04228097375 	0.0117967540841 	-6.11177509525e-25
1.0463819552 	0.0177038577841 	7.28163615879e-23
1.05085232087 	0.0264180567462 	-5.39861236262e-22
1.05589345763 	0.0397084837345 	-3.31081449123e-22
1.06221833983 	0.0612364634224 	1.15204096846e-21
1.06808887403 	0.0923361117696 	3.10150689162e-23
1.07316065837 	0.14435418529 	5.80310285979e-23
1.09728504981 	0.230398973213 	-1.61397238455e-22
1.06721892166 	0.336954799083 	-1.19328492581e-21
0.919336381907 	0.389269585628 	1.24940735111e-23
0.707853918995 	0.365637681476 	-4.25057791787e-22
0.600735431133 	0.295129531793 	-1.88269505265e-22
0.669578471468 	0.22494641703 	3.80291325339e-23
0.907018755092 	0.152368181004 	-5.15458588941e-24
1.03941621691 	0.105990517967 	-2.07786777612e-23
1.06029740945 	0.0422256553572 	1.43249590753e-23
1.05937415834 	0.0188138825636 	-3.15945442577e-22
1.05702782726 	0.0072170060376 	2.95252129714e-22
1.05180125311 	0.00102296767739 	1.82900776566e-23
1.04750911106 	-0.000885710264826 	2.45028481946e-23
1.04332842763 	-0.00195375394708 	1.09165974435e-23
1.03935851615 	-0.00163854994056 	3.66861786004e-22
1.03710291563 	-0.00172677617451 	1.10098401047e-22
1.034074777 	0.00417344473745 	-5.99265760119e-22
1.03554192097 	0.00703332809791 	-6.34160013009e-22
1.03700655759 	0.0107827755485 	1.93831880537e-22
1.03869997337 	0.016264716966 	-3.4445617092e-24
1.03942099184 	0.0237441113361 	1.73804487954e-22
1.03867500916 	0.0355217278675 	3.86764939772e-22
1.03703734181 	0.0542176410414 	2.77774202746e-23
1.02878475575 	0.0823345482824 	-3.51394046046e-22
1.01266452704 	0.127918365214 	2.72933337236e-22
0.995105133227 	0.204438665788 	1.81508182134e-22
0.963585692659 	0.309047898081 	-3.09623118235e-22
0.860109424321 	0.40394596828 	0
0.719619955192 	0.446691423759 	-3.03540835827e-36
0.672693374598 	0.426267514967 	-4.8121319023e-25
0.784890481181 	0.341805111334 	2.05826549526e-22
0.992826900454 	0.210390189252 	-2.19312371051e-22
1.112140232 	0.107665625531 	-1.73244822086e-22
1.10837418695 	0.0500868056192 	3.56719062761e-22
1.08260322227 	0.0195391294402 	-2.32380873811e-23
1.06730237665 	0.00765330688999 	-1.32758247525e-22
1.05782013025 	0.000567417146824 	5.74859571612e-23
1.04993178371 	-0.00145977740996 	4.55089501681e-23
1.04419777764 	-0.00242193782523 	6.47143036744e-23
1.03955541708 	-0.00231710295014 	-1.92046281716e-22
1.03636228515 	-0.00130850980069 	-1.72720425207e-22
1.03222147923 	0.00351733895443 	0
1.0330569098 	0.00570813132526 	0
1.03358658117 	0.00835922917202 	0
1.03368624593 	0.0122008557734 	0
1.03176546068 	0.0178276100761 	0
1.02670101049 	0.0263054945739 	0
1.01783737966 	0.0405026523352 	0
0.997561470712 	0.0640843164255 	0
0.961652020666 	0.101212345809 	0
0.914538772809 	0.15924833095 	0
0.859211703705 	0.251852046476 	0
0.774696875797 	0.350374709891 	0
0.700753725838 	0.391443927759 	0
0.728156789559 	0.350953942763 	0
0.900040750043 	0.234777899137 	0
1.11118437896 	0.10768096852 	0
1.18375740395 	0.0397875509313 	0
1.14239293485 	0.0130683986215 	0
1.09899559049 	0.00257523505161 	0
1.07508653616 	-0.00218793126759 	0
1.06062292581 	-0.00543970712188 	0
1.05037277162 	-0.00460475016966 	0
1.04369994968 	-0.00447403964056 	0
1.03882505971 	-0.00346427301524 	0
1.03553258326 	-0.00218674318153 	0
1.03074562933 	0.00243197697763 	0
1.03139716855 	0.0036510663907 	0
1.03157501 	0.00478639661421 	0
1.03067005707 	0.00607905786058 	0
1.02713766352 	0.00788167556455 	0
1.01912281133 	0.00992019443126 	0
1.00301259124 	0.0136533239771 	0
0.972560376167 	0.0220016785617 	0
0.922230933622 	0.036541540213 	0
0.848125604463 	0.0641616319737 	0
0.77448720626 	0.120424526885 	0
0.722537906127 	0.172057735579 	0
0.727314744068 	0.173591547777 	0
0.835409161482 	0.107049211573 	0
1.02615492274 	-0.00119467699711 	0
1.18130659672 	-0.0610873580737 	0
1.19857283495 	-0.0549087985347 	0
1.14040005037 	-0.0367857769399 	0
1.09656002859 	-0.0235218210755 	0
1.07399228912 	-0.0171570964536 	0
1.05898629783 	-0.0134503381623 	0
1.04844091291 	-0.00926241382062 	0
1.04213830944 	-0.00720442942346 	0
1.03723804903 	-0.0049278949894 	0
1.03415755001 	-0.00314486262093 	0
1.02983997276 	0.00126873718056 	0
1.03068680509 	0.0015467135511 	0
1.0311958139 	0.00117554015022 	0
1.03074303306 	-0.000253650375183 	0
1.02787202754 	-0.00351318373169 	0
1.02099341805 	-0.0101530596546 	0
1.00505820608 	-0.0216626950826 	0
0.973879858482 	-0.0405413003457 	0
0.916814799435 	-0.0613690077043 	0
0.827433360292 	-0.0740604477112 	0
0.7532033012 	-0.0698146959357 	0
0.728720746378 	-0.0766321331281 	0
0.778982622991 	-0.107117048834 	0
0.919617476116 	-0.154569485729 	0
1.07501745821 	-0.191822303583 	0
1.16192155322 	-0.168240050115 	0
1.15736294465 	-0.110518195886 	0
1.11197030141 	-0.0680045543119 	0
1.08108263104 	-0.0436335188872 	0
1.06526748692 	-0.0292411374595 	0
1.05319673792 	-0.0200194780168 	0
1.04444622759 	-0.013523928932 	0
1.03926295866 	-0.0094468767407 	0
1.03495571116 	-0.00616051221377 	0
1.03236465772 	-0.00384228923618 	0
1.02970142023 	0.000403967835789 	0
1.03115333863 	-5.96633557953e-06 	0
1.03283240551 	-0.00155955709344 	0
1.03469284894 	-0.00500311926129 	0
1.03579737845 	-0.0118512588814 	0
1.03584136416 	-0.0249923561342 	0
1.03164870358 	-0.0478568268411 	0
1.01108169761 	-0.0898503812226 	0
0.953246889281 	-0.143491267296 	0
0.854049170973 	-0.190698209344 	0
0.777097040363 	-0.223238764475 	0
0.759746678839 	-0.255224548103 	0
0.808273697182 	-0.285588899948 	0
0.928088821224 	-0.296117463482 	0
1.04133265682 	-0.26989302262 	0
1.09303256033 	-0.203045211347 	0
1.09425423733 	-0.130190867046 	0
1.07437288303 	-0.0811637375553 	0
1.05988720652 	-0.0534491647205 	0
1.05154787323 	-0.0353142892742 	0
1.04429925474 	-0.0233531162234 	0
1.03868072498 	-0.015696750065 	0
1.03507045949 	-0.0104981600195 	0
1.03197132087 	-0.00675297142593 	0
1.03007865847 	-0.00415273306082 	0
1.03004216371 	0.000119284444195 	0
1.03249544106 	-0.000469192424726 	0
1.03601533649 	-0.00228184270453 	0
1.04102473675 	-0.006065279519 	0
1.04782646937 	-0.0128221816879 	0
1.05752233969 	-0.0261937917337 	0
1.07114310134 	-0.0485922838903 	0
1.07076780377 	-0.0925096955584 	0
1.01781921619 	-0.162735257401 	0
0.906503867326 	-0.235136327409 	0
0.81682373518 	-0.288666071266 	0
0.791390968356 	-0.325640349764 	0
0.818928918653 	-0.348655380685 	0
0.899399838763 	-0.341271034111 	0
0.973153928724 	-0.283906043237 	0
1.01202045763 	-0.202972151114 	0
1.03041416035 	-0.1337556159 	0
1.03385668992 	-0.0847596162878 	0
1.03489179269 	-0.0548208656003 	0
1.03473515225 	-0.0350251065657 	0
1.03334709454 	-0.0224743584104 	0
1.03168597174 	-0.01475792546 	0
1.03016946836 	-0.00969571243903 	0
1.02862186805 	-0.00626115653143 	0
1.02753869449 	-0.00383999492664 	0
1.03034593737 	0.000375917741274 	0
1.03367604078 	0.00018942779414 	0
1.03876190563 	-0.000672512905235 	0
1.04595002633 	-0.00286494807895 	0
1.0569949892 	-0.00619030220371 	0
1.07359789099 	-0.013721154512 	0
1.10026862682 	-0.0249852095624 	0
1.12577478835 	-0.0474825919341 	0
1.0977078279 	-0.101768107502 	0
0.982403430003 	-0.186318305325 	0
0.865538693953 	-0.266657319637 	0
0.816958628551 	-0.314314784518 	0
0.819540003263 	-0.33289342791 	0
0.856292118743 	-0.310729016096 	0
0.896155549229 	-0.243968670379 	0
0.936298280708 	-0.170909765745 	0
0.973298478201 	-0.112982163121 	0
0.994347136752 	-0.0713949453403 	0
1.00881095627 	-0.0443030518596 	0
1.01799182001 	-0.02674802346 	0
1.02292998466 	-0.0165404764328 	0
1.02528946568 	-0.0104866503394 	0
1.02596978092 	-0.00681085078176 	0
1.02580512937 	-0.00441501008587 	0
1.02540746883 	-0.00271790678093 	0
1.03018704711 	0.00108793818499 	0
1.0337118871 	0.00161359514071 	0
1.03923583995 	0.00239115370458 	0
1.04682577235 	0.00283920702553 	0
1.05910974187 	0.00402745120332 	0
1.07725374376 	0.00455169183842 	0
1.10604616093 	0.00707030079769 	0
1.14701915766 	0.0122179187815 	0
1.15569718489 	0.00313953236171 	0
1.07406708656 	-0.0450914340712 	0
0.94743810964 	-0.126122358659 	0
0.857733587907 	-0.187383218796 	0
0.81643381486 	-0.206384984631 	0
0.811562053237 	-0.182879483826 	0
0.83218896481 	-0.13402762203 	0
0.878618966424 	-0.0885043906836 	0
0.930683932799 	-0.0514907973071 	0
0.965620906141 	-0.0285055694403 	0
0.99009324326 	-0.0159327484037 	0
1.00699563725 	-0.00872729468797 	0
1.01683481104 	-0.00549366816919 	0
1.02182204518 	-0.00363361462273 	0
1.02382912207 	-0.00255977991572 	0
1.02436130867 	-0.00175454546155 	0
1.02425915847 	-0.00113434327309 	0
1.0292110711 	0.00213213350632 	0
1.03232832099 	0.00347435113209 	0
1.03735960363 	0.00572274089525 	0
1.04411592521 	0.00859308924794 	0
1.05515620594 	0.0134600144709 	0
1.07068789118 	0.0205952700516 	0
1.09338541894 	0.0329297034796 	0
1.12965256691 	0.0556472051828 	0
1.15467446969 	0.0856842764527 	0
1.11692959698 	0.0976808443105 	0
1.01669943525 	0.0697292752867 	0
0.905290263318 	0.0318614578504 	0
0.823827831595 	0.015261308091 	0
0.791903704968 	0.0151737981658 	0
0.804499686931 	0.0220425381072 	0
0.852307012805 	0.0313573926387 	0
0.913189999146 	0.0390668103633 	0
0.959210733064 	0.0357465860897 	0
0.989348263295 	0.0247527113047 	0
1.00825943106 	0.0149311680515 	0
1.018281157 	0.0080817779657 	0
1.0227825903 	0.00412653683091 	0
1.0242995238 	0.00188012879782 	0
1.02452147573 	0.000776095838486 	0
1.02420454762 	0.000280269512625 	0
1.02758749575 	0.00294736828448 	0
1.03004388561 	0.00492693985965 	0
1.03403789861 	0.00808723087922 	0
1.03918950923 	0.0126127808311 	0
1.04734886482 	0.0199607060906 	0
1.05819280531 	0.0314998881551 	0
1.07176257537 	0.0495812894258 	0
1.0927329428 	0.0798889826554 	0
1.11227443775 	0.126156491403 	0
1.09165365694 	0.172598223722 	0
1.01792295366 	0.199371511251 	0
0.919030869702 	0.206072749459 	0
0.837477565658 	0.199085224658 	0
0.805046457606 	0.180935653429 	0
0.814483953177 	0.159029321029 	0
0.859358192752 	0.140607678792 	0
0.925465487968 	0.121014393274 	0
0.979813958278 	0.0917323783045 	0
1.01072481984 	0.0582480860535 	0
1.02389119236 	0.0335206468622 	0
1.02773629263 	0.018735612591 	0
1.02817296274 	0.0102416964946 	0
1.0272461873 	0.00534916333499 	0
1.02608540808 	0.00263611239489 	0
1.02499648006 	0.00125320277736 	0
1.02573640959 	0.00299820654369 	0
1.02737750516 	0.00511363151096 	0
1.02984030561 	0.00852747035132 	0
1.03261798233 	0.0137549844961 	0
1.03660968612 	0.0223689888994 	0
1.04138796004 	0.0363668601781 	0
1.04526519477 	0.0581414788551 	0
1.05073129255 	0.0909567128439 	0
1.05757229609 	0.139487034518 	0
1.03703603878 	0.198409031669 	0
0.978683183341 	0.250714538245 	0
0.904745747398 	0.280555363054 	0
0.848067672567 	0.281230125822 	0
0.830780870049 	0.262698808296 	0
0.843511811754 	0.234548456312 	0
0.890069936283 	0.201005316206 	0
0.961834669197 	0.161551571084 	0
1.02170330234 	0.111701655002 	0
1.04767510933 	0.0662810792693 	0
1.04789107179 	0.0378814375841 	0
1.04156686276 	0.0215517827297 	0
1.03605019533 	0.012247191093 	0
1.0317101302 	0.00671370512717 	0
1.02853587504 	0.00350683601288 	0
1.02629166789 	0.00175831325776 	0
1.02393642783 	0.00223199474361 	0
1.02465656093 	0.00390857964523 	0
1.02538021099 	0.00674758013877 	0
1.02538717146 	0.0112622172246 	0
1.02452873555 	0.0190483330249 	0
1.02219102038 	0.0321871335665 	0
1.01675749279 	0.0536498106953 	0
1.01008601366 	0.0836154293652 	0
1.00283155387 	0.127067815797 	0
0.974142456068 	0.184981610883 	0
0.928541910406 	0.243784943362 	0
0.884142510693 	0.284132807555 	0
0.853994434942 	0.291549829113 	0
0.85238258652 	0.277262940978 	0
0.874811558189 	0.248282692704 	0
0.932171325945 	0.203443534273 	0
1.01578544432 	0.145629441793 	0
1.07498476762 	0.0858862505403 	0
1.08499519396 	0.0470760684022 	0
1.06936415252 	0.0275938883668 	0
1.05390617099 	0.0159810177981 	0
1.04325298081 	0.00949583460604 	0
1.03602043334 	0.00540060595004 	0
1.03104046794 	0.00300409551607 	0
1.02773139382 	0.00158287324851 	0
1.02270284602 	0.000922833232751 	0
1.02274598004 	0.00162242672457 	0
1.0222116895 	0.00293357513192 	0
1.02008346295 	0.00498393886399 	0
1.01527205825 	0.00884087661824 	0
1.00647875912 	0.0158755210931 	0
0.993301672069 	0.0293037040496 	0
0.97723198102 	0.0488307119669 	0
0.955790550269 	0.0800936673286 	0
0.916413967513 	0.125128013196 	0
0.876893185974 	0.173303815763 	0
0.855843409705 	0.215757482171 	0
0.852365413615 	0.233548087589 	0
0.872946881346 	0.225210615308 	0
0.917873647044 	0.189860545509 	0
0.993856344931 	0.13006584929 	0
1.07979901135 	0.0696084748162 	0
1.11943035809 	0.0287234761301 	0
1.10607906136 	0.0139742334075 	0
1.07995421595 	0.00910520497634 	0
1.06030891774 	0.00533816627266 	0
1.04712009237 	0.00342802657861 	0
1.03850157908 	0.00195906324333 	0
1.03256800877 	0.0011850809918 	0
1.02873950085 	0.000664080585992 	0
1.0225719586 	-0.000523636075507 	0
1.02258960065 	-0.00109806641366 	0
1.0219330262 	-0.0019515186887 	0
1.01949348351 	-0.00351911068973 	0
1.0136139019 	-0.00588354823648 	0
1.0018093833 	-0.00916024334631 	0
0.983609398295 	-0.0111709719255 	0
0.959859030455 	-0.00902381853598 	0
0.926467679174 	0.0031945561771 	0
0.879856752476 	0.0246052387788 	0
0.841385462994 	0.0447582251461 	0
0.830018993285 	0.0637599016643 	0
0.84850725591 	0.0749742449009 	0
0.89883864661 	0.0715296762626 	0
0.972239513529 	0.0442755403415 	0
1.05448236232 	-0.00111018308699 	0
1.11823064959 	-0.0289920084458 	0
1.1304816368 	-0.0290473309101 	0