1.01410073154 	-0.00822122073608 	-2.09626735874e-21
1.01521577277 	-0.0128424057489 	-1.58976719104e-21
1.01650483387 	-0.0179879532106 	5.78383488103e-22
1.01792701466 	-0.0240641600892 	6.61107410916e-25
1.01910866898 	-0.0311241947315 	-6.42393862543e-22
1.0195286704 	-0.0395327465997 	-3.11768408384e-22
1.01813784519 	-0.0489828650209 	-3.54232360862e-22
1.01298285374 	-0.0580432304161 	-1.71898776407e-21
1.00260230499 	-0.0686165251212 	2.40313969314e-20
0.982792651699 	-0.0729672887944 	1.73527590231e-21
0.955171924375 	-0.0656568494637 	3.8484124424e-23
0.927500526791 	-0.0387561841024 	2.06687334687e-21
0.91643228937 	0.00576144327648 	-3.32239662706e-24
0.932511307922 	0.0487701238505 	2.43842842651e-22
0.963169647321 	0.0720239798619 	-1.44435220514e-21
0.991278234246 	0.0755997717831 	1.65227360386e-21
1.00989329609 	0.0683916845458 	1.54517892085e-20
1.01862599568 	0.0562717270142 	-1.16987310277e-21
1.0220231078 	0.0465596490943 	-1.0920447308e-21
1.02208643323 	0.0371295948917 	2.2428142418e-22
1.02066673023 	0.0290711696012 	4.41119427211e-22
1.01875716661 	0.0223862217801 	1.18218402379e-23
1.01684159026 	0.0167528528254 	-2.41773632924e-22
1.01525390061 	0.0119490195586 	5.01003121063e-22
1.01396318816 	0.00762353736644 	5.0270210762e-22
1.01870042478 	-0.00880905520942 	7.45094701049e-22
1.02035863592 	-0.0137689856104 	1.48094791422e-21
1.0225064771 	-0.0196153858422 	9.64489650286e-22
1.02501111628 	-0.026556428422 	-1.91319275428e-22
1.02761634047 	-0.0349673510082 	9.48070397606e-22
1.02960841038 	-0.0454295869852 	-4.1635077881e-22
1.02986594654 	-0.0582254942289 	7.46827126167e-22
1.0264588375 	-0.0740863382174 	2.35863962103e-22
1.01490342261 	-0.0924653011555 	-7.31601667697e-22
0.989556540186 	-0.109360631821 	-3.0838882683e-21
0.942067642177 	-0.114724912299 	-4.20287653937e-21
0.877383534947 	-0.0807159003412 	1.04346554909e-20
0.844857026913 	0.00831367058276 	1.67706246141e-22
0.887078362109 	0.0934106969311 	9.35241962328e-21
0.955593345845 	0.119827784143 	-7.50958260873e-21
1.00219013303 	0.108269054543 	-1.69072730494e-21
1.02470049909 	0.0879510483818 	-3.59544204565e-22
1.03269249301 	0.0682543375021 	-2.01399657135e-22
1.03369702161 	0.0527210171594 	-3.19210248172e-22
1.03164156695 	0.040773829972 	1.76024945644e-22
1.02846105709 	0.0313473334633 	-4.52963330737e-22
1.02518386117 	0.0238840366079 	7.33023838215e-23
1.02229341842 	0.0177704181191 	-1.54701062443e-22
1.01994692243 	0.0125462607086 	-3.8872379293e-22
1.0182008978 	0.00803768959158 	-1.06488084952e-22
1.02347087585 	-0.00896217901631 	1.50195361067e-23
1.02587095155 	-0.0139248982918 	7.07271767748e-22
1.0290527209 	-0.0201234580136 	-6.65528797648e-22
1.03297834578 	-0.027541009603 	-3.7608644016e-24
1.03759742154 	-0.0368236353177 	2.93783837916e-22
1.04233877474 	-0.0489033295932 	2.91871481822e-22
1.04616506129 	-0.0647721915994 	-6.18211011453e-22
1.04702779796 	-0.0861037337087 	-1.5489846342e-21
1.04085903777 	-0.114918596064 	-1.59729089786e-22
1.01819634191 	-0.154434756132 	1.20585597191e-21
0.953301516952 	-0.199295943206 	1.67329631642e-20
0.799330319056 	-0.197484604827 	-2.09819700595e-21
0.667651239224 	0.0163065989 	-2.65758117436e-21
0.821347569381 	0.21731578687 	-3.57079822072e-21
0.977139366056 	0.201836529348 	9.0872563745e-21
1.03603309517 	0.146927098107 	-3.92820284677e-22
1.05224345161 	0.10400656678 	1.65472634164e-23
1.05310450525 	0.0752880686695 	-5.58905288433e-23
1.04866533506 	0.0556560315893 	-1.27544307931e-22
1.04281862249 	0.0419747558098 	7.42329671293e-23
1.03705309236 	0.0318770229376 	-4.49451398409e-23
1.03204422684 	0.0241346414538 	-1.36513807678e-24
1.02799380786 	0.017885856464 	3.10308465258e-24
1.02482666908 	0.0125511121136 	-6.04742152558e-23
1.02252503997 	0.00811105647803 	-9.54005308884e-23
1.02825446317 	-0.00851922943003 	6.70044049125e-23
1.03140184693 	-0.0133303755964 	-2.73381661391e-23
1.03570478317 	-0.0192805422686 	1.136804084e-22
1.04134735009 	-0.0265862306317 	-1.01924641766e-22
1.04835162681 	-0.0358908768175 	-1.40993302564e-22
1.05661413534 	-0.0485248171125 	-1.04758750872e-22
1.06564550296 	-0.0658827022612 	1.36369841622e-22
1.0744676699 	-0.090464066607 	-2.37734630216e-22
1.0810673681 	-0.126891636514 	-1.76902879299e-23
1.08033249984 	-0.18608903925 	-2.90080349838e-22
1.05462527832 	-0.300361998508 	-8.72742300058e-23
0.838312446193 	-0.570979638194 	-2.61590542199e-21
0.897314911488 	0.595718624161 	1.82183489507e-22
1.09547379134 	0.292102415527 	-2.02856949319e-21
1.10437275206 	0.166995301889 	-2.22952700552e-21
1.09237260505 	0.106714846303 	-6.71081035098e-22
1.07801841545 	0.0736944603621 	9.21015059684e-22
1.0650995478 	0.0533925767893 	4.9062230989e-22
1.0543444428 	0.0399437482238 	-8.47109517215e-23
1.04567857617 	0.030271289422 	-1.48472389358e-22
1.03885324758 	0.0229928066309 	-1.0390460454e-22
1.03358583985 	0.017073823764 	-9.15178963995e-24
1.02963922992 	0.0120447686813 	-3.98191876902e-23
1.02681052099 	0.00778657875012 	6.97546395383e-24
1.03272065031 	-0.00741297473266 	-4.15854608122e-23
1.03654575461 	-0.0118665068431 	4.58996771205e-23
1.04192174493 	-0.017003456555 	3.66591480239e-23
1.04929131585 	-0.0234864879037 	-1.47166468755e-25
1.05877409411 	-0.0318779719972 	-1.36707520287e-23
1.07089528889 	-0.0434459609272 	-1.78022912729e-24
1.08587099022 	-0.0597360353733 	-3.88146414794e-24
1.10397069208 	-0.0832742075439 	1.95526245699e-23
1.12634282812 	-0.118388545185 	-3.67854506212e-22
1.1579604745 	-0.172929611683 	-1.77437429485e-22
1.22685492085 	-0.264926001506 	1.82055020562e-22
0.0443710345323 	0.00148366933589 	-2.1392847366e-21
1.28422061699 	0.229834792184 	-2.74548252458e-22
1.18366861431 	0.133987678374 	3.90450476283e-22
1.13266145684 	0.0862352941831 	1.11706586686e-21
1.10112268373 	0.0606242141644 	-3.39821421664e-22
1.07983075289 	0.0450813312019 	-4.12286665333e-24
1.06463936366 	0.0345708305303 	9.14672892282e-24
1.05340440766 	0.0267391592679 	1.09670895433e-22
1.04504900978 	0.0205644539964 	-3.49899792598e-25
1.03872522133 	0.0154308407579 	7.55568670385e-23
1.03413297147 	0.0110492324478 	7.32671870158e-23
1.03087228916 	0.00700437575327 	-3.3140689528e-23
1.03632334364 	-0.0061254729146 	2.07142399007e-24
1.04074400763 	-0.00936983652691 	-3.55711771262e-23
1.04709922511 	-0.0134166005292 	-3.53294741036e-23
1.05587455038 	-0.0183161968581 	7.24766844095e-24
1.06749824069 	-0.0246887718478 	7.35482075569e-23
1.08309596487 	-0.0335525496941 	1.58855660491e-22
1.10333988804 	-0.0461882136408 	-9.38211704306e-22
1.12959603057 	-0.064638744717 	4.06661378274e-22
1.16357602939 	-0.0911940952887 	1.32859190494e-21
1.20956361572 	-0.125825461157 	-8.27398692153e-21
1.26276422213 	-0.147907103611 	2.29739022112e-20
0.0840593601077 	-0.00209409226745 	1.28904836247e-21
-0.000638949781386 	0.0164858418479 	-4.48213351564e-22
0.182869309015 	0.0411138874993 	-3.16513439112e-23
1.33849158182 	0.0715749738514 	-3.87164929341e-20
1.22394640636 	0.0573801184177 	1.20155100969e-20
1.15470529637 	0.0464095355826 	1.12176356178e-21
1.11469181493 	0.0387545384853 	3.93130092167e-22
1.08918795432 	0.0324463599321 	1.63806831719e-21
1.07190760163 	0.0268577102301 	-2.81983217586e-22
1.05930978728 	0.0217958012498 	-2.54526616882e-22
1.05009209837 	0.0172105938009 	-1.14400229191e-23
1.0430961196 	0.0131819087909 	-5.16355830478e-23
1.03796490967 	0.00947068266758 	-1.01764080742e-22
1.034358801 	0.00623751963402 	-1.93718296134e-22
1.03910577715 	-0.00426098726935 	-1.60209999553e-23
1.04373980623 	-0.00627297507642 	-1.14750894218e-22
1.05071211221 	-0.00887861315251 	1.80406367187e-22
1.06033953899 	-0.011657631376 	-1.77917475828e-24
1.07343737734 	-0.0151967751249 	-2.76048637719e-22
1.09126885921 	-0.0199440767761 	-3.00228066037e-22
1.11528920399 	-0.0267966732924 	9.0913540117e-22
1.14725613965 	-0.0373668887904 	3.36561075347e-21
1.18869695962 	-0.0537226937735 	7.90748816085e-22
1.23892908852 	-0.0786769054199 	3.00323476977e-21
1.21607954083 	-0.0834722428347 	2.05971319391e-21
0.115286007251 	-0.0328205410173 	-3.08917002383e-21
-0.182812088468 	0.0165003909878 	-3.5047286587e-21
0.486592246421 	-0.0365282576613 	-8.85083707358e-21
1.30363141003 	-0.0799434727932 	-3.26686731416e-21
1.21187079235 	-0.0242261273093 	-3.70594034381e-21
1.14970009635 	0.00395669091693 	-1.35910158178e-22
1.11464839613 	0.0160060421193 	-4.70686538607e-21
1.09167888606 	0.0195584655353 	-1.4396385319e-21
1.07538485436 	0.0188621871122 	3.74557680478e-22
1.06317409058 	0.0164710046392 	4.6074305951e-22
1.05382629121 	0.0135030051729 	5.52863032078e-24
1.04654157859 	0.0106086585044 	-6.38351762781e-22
1.0410849873 	0.0076600383971 	5.68034805474e-22
1.03736037231 	0.00510702171658 	5.06724033597e-22
1.04084961141 	-0.00230249294496 	-1.16920707872e-22
1.04545369823 	-0.00305201752662 	-3.9836415212e-22
1.05242288475 	-0.0039424199268 	-2.66783157552e-22
1.06214784741 	-0.00439307429097 	6.06595787258e-23
1.0754929596 	-0.00452085962157 	-6.42822901388e-22
1.09419325743 	-0.00416531610984 	4.64853707532e-22
1.11949748673 	-0.0038411511382 	-1.16726516375e-21
1.15399721586 	-0.00364938972289 	-9.16194727638e-23
1.20459455145 	-0.00809899179395 	-2.65939373851e-21
1.26913695043 	-0.0223011746438 	-3.13036267763e-21
1.197989277 	-0.0450222262284 	5.35080872023e-21
0.251367890214 	-0.208387849923 	6.97182180337e-21
-0.179008959188 	-0.362760804162 	5.32442671831e-22
0.570491011033 	-0.344667622944 	1.24110626838e-20
1.17485318766 	-0.20291739782 	-2.24962762868e-21
1.14414257753 	-0.0779087537974 	-2.42253917518e-21
1.12413873397 	-0.02441982296 	-1.80439941349e-21
1.10337502754 	0.00126920405558 	2.88589033323e-22
1.08876267763 	0.0103466692388 	1.81431335291e-21
1.07623793795 	0.0124712873777 	-6.59042509725e-22
1.06515194858 	0.0117098781506 	9.92061770483e-22
1.05635298519 	0.00988555007793 	-1.17253436167e-22
1.04907767722 	0.00792983129315 	7.5860550888e-22
1.04357101439 	0.00579194889168 	9.46550789158e-22
1.03976343251 	0.00384424648271 	-3.2774037215e-23
1.04135350844 	-0.000484600957815 	3.83829513039e-22
1.04579483612 	-0.000125571356975 	4.00162065135e-22
1.05214478319 	0.000717372483486 	-2.29942317246e-22
1.06117535993 	0.00252456141222 	-8.14904893095e-23
1.07349444413 	0.00582018294392 	2.95575952651e-22
1.09064393159 	0.0111339429979 	1.62547747179e-22
1.11531630655 	0.0206759922595 	-2.36660968446e-22
1.14745108518 	0.0300387484702 	7.89424356673e-22
1.1990155546 	0.0469563180508 	2.96838453388e-20
1.28554755505 	0.0609641718023 	2.65811896123e-21
1.24555094426 	0.0580942787495 	1.0851559003e-21
0.551370666569 	-0.168131004742 	4.94474112331e-21
-0.049235544337 	-0.456852050708 	-3.91819532082e-22
0.388631472389 	-0.406308263621 	1.36607796601e-21
0.987637270197 	-0.187681265318 	-8.44539204784e-22
1.06367800199 	-0.0657180492105 	1.49815448173e-21
1.08717621819 	-0.01777132301 	1.79469594136e-20
1.08869719276 	0.000517932741453 	4.05483617713e-22
1.08462906631 	0.0067522536716 	2.44402033022e-21
1.07572654 	0.0082809808494 	-2.90319000442e-22
1.06625529844 	0.00777636763114 	-8.21268240845e-22
1.05801751121 	0.00650106106192 	1.7219943783e-22
1.05079308692 	0.00524102622895 	3.64249717287e-22
1.0453766132 	0.00381145572708 	-8.32729432051e-22
1.04141800708 	0.00248002017235 	-7.25506294182e-22
1.04094020893 	0.00106187920222 	-5.85363185808e-22
1.04480741193 	0.00230442825184 	-2.45262351821e-22
1.05011078879 	0.00446275267312 	-5.29926106239e-23
1.0577325272 	0.00807124627702 	-2.41283310077e-22
1.06817289941 	0.0143253043866 	2.55182931826e-22
1.0815060794 	0.0246359524106 	-8.78687229065e-22
1.09880632358 	0.0377525702539 	-8.73020201343e-22
1.12640037749 	0.0627265028066 	-1.32055741882e-21
1.16386451304 	0.100717642752 	4.25037706148e-21
1.24389309574 	0.162388840069 	7.72945727905e-22
1.24718514911 	0.23933048076 	-8.46778771727e-21
0.837779508503 	0.183453176522 	-6.75600725932e-21
0.198589378652 	-0.0754813741139 	-1.14929210916e-21
0.205128666368 	-0.227492844647 	-5.57246015238e-22
0.826500486592 	-0.0600828313349 	2.57690461669e-22
1.02099342575 	0.0100462192005 	-4.44808303754e-25
1.07005145281 	0.0102436220439 	1.0687042471e-21
1.08467887986 	0.00945246721903 	-4.58987021567e-22
1.08319931997 	0.00785600723758 	9.66334399924e-22
1.07643812616 	0.00450274698714 	9.89970560861e-22
1.06764869187 	0.00425568964024 	-1.4866966857e-21
1.05915356243 	0.00319254961267 	3.33402719e-22
1.0518016268 	0.00245919550455 	1.0380651814e-22
1.04642967404 	0.00163781658421 	8.96411106457e-22
1.04244141851 	0.00104300892854 	4.10756218855e-22
1.03979697567 	0.00199870362542 	7.06295539203e-22
1.04286696921 	0.00385361888759 	-1.60631784424e-21
1.04687968721 	0.00666031279443 	1.0261887109e-21
1.05250769641 	0.0113872761821 	5.63112484296e-24
1.05912481139 	0.0184516909064 	1.88871366187e-21
1.06691826864 	0.0293147100578 	-4.60533908435e-22
1.07767912428 	0.0485807937378 	-1.86749034491e-21
1.09082303341 	0.0793675020357 	1.00602943901e-22
1.10538308315 	0.129112475739 	1.37427878189e-21
1.13684955049 	0.217055001871 	1.29897079199e-21
1.15278931923 	0.357545142021 	-8.55896664224e-21
0.908030004229 	0.44566978414 	1.19425527731e-22
0.440195806707 	0.339620256784 	-3.97623061689e-22
0.296587599188 	0.162148310634 	6.17785452111e-23
0.722595652118 	0.0901303321534 	3.53796330909e-21
1.03988638903 	0.0948277560077 	-4.58886632712e-22
1.09187383944 	0.0436254443682 	1.45026817826e-22
1.09571420065 	0.0191596797393 	8.08175329611e-23
1.08941784827 	0.00740084976147 	-1.4511620539e-21
1.0782753772 	0.00303562341054 	-6.43906845083e-22
1.06852865612 	0.000379533780264 	1.69408378733e-21
1.05947252446 	-0.00124151283052 	-1.51782554113e-24
1.05214402375 	-0.000564154431542 	-1.92952959331e-21
1.04679365276 	-0.000718633660084 	3.31875520976e-21
1.04260897819 	-0.0002966289571 	-1.13089146496e-22
1.03828578478 	0.00245992172015 	-5.42661728019e-22
1.04071364858 	0.00451203375273 	-5.19558651299e-24
1.04340439738 	0.00700362502027 	1.92017546195e-21
1.04636657798 	0.0110454884833 	-1.05073486015e-21
1.04941309694 	0.0177282651799 	1.6910252845e-21
1.05289871048 	0.0288976569707 	-1.93729867032e-21
1.05280794288 	0.0476283158226 	2.1931631029e-22
1.051389894 	0.0764618461631 	-1.38809130622e-23
1.03984466699 	0.124661292525 	1.53462254642e-21
1.02059955879 	0.208667751128 	-1.91873770251e-21
0.997133519925 	0.34794920014 	2.30345719094e-21
0.847119222693 	0.463572858397 	1.98338624106e-21
0.52686635065 	0.508446528392 	-2.49081578959e-22
0.449832952546 	0.441444013884 	-5.08895923329e-22
0.781979069274 	0.253267368016 	-2.83359879402e-22
1.12074042294 	0.123782955541 	-1.72151056997e-22
1.14930203443 	0.0500440144997 	2.72891293305e-22
1.11757736146 	0.013377829968 	6.01947401098e-24
1.09904466866 	0.000556204357507 	3.24268428077e-22
1.08157427797 	-0.00451980557719 	-2.34663389789e-21
1.06920339054 	-0.00471975697383 	2.08006929344e-21
1.05878956329 	-0.00435668303967 	-3.20974102835e-22
1.05089477746 	-0.00461854037218 	-3.75046527207e-21
1.04634581645 	-0.00325671415802 	-8.54328456351e-23
1.04207427244 	-0.00176010330701 	7.73008893643e-22
1.03678922865 	0.00236267132079 	3.84062732671e-22
1.03856266093 	0.00414255271849 	-2.37591011683e-22
1.04002656743 	0.0057259205132 	-1.89738502156e-22
1.04172523098 	0.00887792747576 	1.04065019834e-22
1.0428817263 	0.0137373540051 	1.06906664683e-22
1.04078196181 	0.0215025748855 	5.00510271151e-22
1.03277509455 	0.033654561346 	1.05032677011e-22
1.01909736491 	0.0544675377857 	6.32445755057e-23
0.982679801475 	0.0902178857526 	-7.05338494135e-23
0.931182328657 	0.151493977553 	-6.49385165223e-23
0.861553920134 	0.245157637533 	-2.4970778324e-22
0.71434438863 	0.386081797981 	-2.50927147556e-22
0.51817662258 	0.483701637494 	-5.53482819934e-22
0.58106696633 	0.413948753225 	1.41523505014e-21
0.986630898235 	0.146915627648 	1.63141459514e-21
1.21934395369 	0.033396070222 	2.36323737852e-22
1.19743966146 	-1.19281806046e-05 	6.97435103092e-24
1.1343611381 	-0.0153382201327 	-1.04762354646e-22
1.10350928091 	-0.0153687365472 	1.04869014121e-22
1.08303450665 	-0.0159042979125 	7.76121281283e-22
1.06740548323 	-0.0116701006778 	3.73910412814e-22
1.0571617416 	-0.00952054705511 	2.9229336828e-22
1.04925854601 	-0.00643510429248 	-4.21568325716e-22
1.04485318071 	-0.00498535614773 	-1.21759178204e-21
1.0404783352 	-0.00331196218602 	-8.39342810262e-22
1.03540473279 	0.00232030716265 	-8.33120032699e-22
1.0367155048 	0.0030492842452 	2.74013570783e-22
1.03862271436 	0.00414654252549 	2.96987796376e-23
1.03977450028 	0.00552311931315 	2.5117089994e-23
1.03928310035 	0.00717936637864 	-2.10627781697e-23
1.03553838456 	0.00856139740219 	1.39722472331e-22
1.02583511875 	0.00917099566716 	-1.54818993241e-22
1.00289930101 	0.013598658159 	8.17871164795e-24
0.946143407255 	0.0222438338112 	-2.07743877877e-23
0.86480938807 	0.0419219552432 	6.29086607884e-24
0.734664598533 	0.131481875702 	4.71208830992e-22
0.598384857681 	0.232582789123 	7.77452862142e-25
0.596652795288 	0.184021230225 	-4.04369385875e-22
0.825906957682 	0.0240308100635 	2.01228047189e-21
1.11654913215 	-0.10361872934 	5.79242789e-22
1.23848112838 	-0.116751051301 	1.8505124354e-23
1.20379681483 	-0.0738831743537 	2.54357391861e-23
1.12531456828 	-0.0569600653242 	4.65543910247e-23
1.09621595698 	-0.0367088085596 	1.17376796606e-21
1.07777239393 	-0.0275260255038 	-3.44531266877e-22
1.06246854261 	-0.0192491005472 	-4.94990492462e-22
1.05375425338 	-0.0134150684731 	6.69395090752e-23
1.04643965645 	-0.00961396882765 	-1.24476954464e-23
1.04147724627 	-0.00653614052314 	1.04626016696e-21
1.03839777611 	-0.00442338436595 	2.0765911091e-22
1.03466815533 	0.0012599370546 	-1.10621050395e-22
1.03650054599 	0.00191376002586 	-1.1355720957e-22
1.03852516519 	0.00204217626705 	5.61625977459e-23
1.03978220609 	0.00136196329207 	4.98411553386e-23
1.03975915865 	-0.000811100415337 	1.94548326945e-23
1.03713285604 	-0.00556819073452 	-2.39072598288e-22
1.02743226287 	-0.0134168960517 	-3.3087126191e-23
1.00379529987 	-0.029371068663 	5.82541177651e-22
0.949764817967 	-0.057308793282 	-4.05884797102e-22
0.830261724702 	-0.0777637837611 	-4.017680034e-22
0.696304614306 	-0.0794390462235 	4.74452910722e-22
0.645326837967 	-0.115223407693 	0
0.729681301088 	-0.193166532705 	-2.78410708837e-35
0.925569807129 	-0.263329402947 	-4.41373580029e-24
1.10150363287 	-0.269283481495 	-9.64649767475e-22
1.16619292784 	-0.203733248771 	5.63145983394e-22
1.14135127012 	-0.126939686683 	8.46677430265e-22
1.09880060338 	-0.0781769474558 	-7.81254692455e-22
1.0767468143 	-0.0523153880098 	4.50167383339e-23
1.06465808959 	-0.0352773664878 	5.27226655758e-22
1.05421397782 	-0.0241889784223 	1.89434063856e-22
1.04724033228 	-0.0166568826727 	-1.7726290195e-23
1.04247434074 	-0.0113466777942 	1.9201339969e-22
1.03844445951 	-0.00740443246418 	-6.69792720839e-22
1.03583517012 	-0.00431878210221 	-6.24601215176e-22
1.03428825074 	0.00113759516232 	0
1.03664245525 	0.00154395818443 	0
1.0395636405 	0.00106857391292 	0
1.04278381624 	-0.000808265280505 	0
1.04594848697 	-0.00546895582437 	0
1.04882272879 	-0.0152193990376 	0
1.04973302924 	-0.031488903219 	0
1.04260350446 	-0.0691198682678 	0
0.998494328062 	-0.129959381107 	0
0.870844422136 	-0.200171011601 	0
0.737914104203 	-0.259434064297 	0
0.696807392203 	-0.310472907927 	0
0.767778519017 	-0.351720619029 	0
0.923617391631 	-0.356510366437 	0
1.04602115454 	-0.307055567361 	0
1.082550977 	-0.217776099493 	0
1.07512913047 	-0.135914977124 	0
1.06254287739 	-0.0856256893956 	0
1.05541340435 	-0.0576070331302 	0
1.04984388566 	-0.0382774970159 	0
1.04483802525 	-0.0255772489685 	0
1.04092673898 	-0.0176306637803 	0
1.03785476392 	-0.0118209957369 	0
1.03524906018 	-0.0077180547277 	0
1.03339840572 	-0.00470026287562 	0
1.03379122075 	0.0012861927098 	0
1.03660438435 	0.00157042602532 	0
1.04057600258 	0.00119563714626 	0
1.0461179581 	-0.000624899650142 	0
1.05356385102 	-0.00453279386217 	0
1.06398477867 	-0.0145076151857 	0
1.0814459052 	-0.0306628229953 	0
1.1021620766 	-0.0657324344391 	0
1.08284294028 	-0.133061237363 	0
0.954250164157 	-0.230716477491 	0
0.797917732303 	-0.321689815279 	0
0.733754322252 	-0.37678291935 	0
0.768762062463 	-0.400398832935 	0
0.87509549315 	-0.37705371328 	0
0.959778781697 	-0.296473231369 	0
0.992144623829 	-0.200576683237 	0
1.01184432134 	-0.128507895602 	0
1.02572238424 	-0.081851882878 	0
1.03283153682 	-0.053679511153 	0
1.03459616489 	-0.0349319077302 	0
1.03511436904 	-0.0230468053425 	0
1.03451870204 	-0.0156404224823 	0
1.03323509717 	-0.0104382303175 	0
1.03199095703 	-0.00690472063453 	0
1.03093901037 	-0.00427461237222 	0
1.0333366019 	0.00178353170546 	0
1.03650618125 	0.00234427004307 	0
1.04135642408 	0.00282571086438 	0
1.04810526709 	0.00231829146394 	0
1.05884055023 	0.00186095497475 	0
1.07433498106 	-0.00224622454693 	0
1.10094780682 	-0.00815876270248 	0
1.1436202552 	-0.0186369946041 	0
1.1628211545 	-0.0499246956527 	0
1.06262261451 	-0.127437880758 	0
0.884473771106 	-0.238479022632 	0
0.774213024237 	-0.32168727464 	0
0.761536180511 	-0.351072331735 	0
0.808709385937 	-0.319128502658 	0
0.862918545763 	-0.236104518514 	0
0.910396437478 	-0.154413626043 	0
0.956243212483 	-0.0994275295372 	0
0.989086703132 	-0.0622639044951 	0
1.00964118753 	-0.0385694898986 	0
1.02044291413 	-0.0244353765036 	0
1.02635345899 	-0.0161806695628 	0
1.02896861616 	-0.0109184873571 	0
1.02949635635 	-0.00750339940441 	0
1.02930866189 	-0.0051480375794 	0
1.02879281023 	-0.00326941110807 	0
1.03251298048 	0.00255180227027 	0
1.03571710721 	0.00385918711746 	0
1.04085693079 	0.00573411821116 	0
1.04750016824 	0.00742753300258 	0
1.05884730462 	0.0108253671909 	0
1.07490539448 	0.0143380308767 	0
1.0997606062 	0.0208183527426 	0
1.14500064749 	0.0342780007379 	0
1.19133100341 	0.0513982370521 	0
1.14765862099 	0.0416500751141 	0
0.998637977158 	-0.028525646742 	0
0.851731008317 	-0.115626935304 	0
0.772266833506 	-0.157140345029 	0
0.762203851214 	-0.144959835384 	0
0.794038851149 	-0.0999030772268 	0
0.853368747507 	-0.0561331782967 	0
0.918723248434 	-0.0293852052796 	0
0.964070451438 	-0.0153134934271 	0
0.993642111699 	-0.00873831910674 	0
1.01142393932 	-0.00600974909036 	0
1.02093934888 	-0.00502619218017 	0
1.02556684081 	-0.00411915797356 	0
1.02722518536 	-0.00341876013645 	0
1.02757101804 	-0.00267088302941 	0
1.02728812148 	-0.00182204096251 	0
1.03088861478 	0.00335661288841 	0
1.03363662379 	0.00543273289645 	0
1.03814819967 	0.00852724044603 	0
1.04369541214 	0.0123359070869 	0
1.05309369623 	0.018472852672 	0
1.06592500719 	0.0274480334274 	0
1.08344430534 	0.0417603852751 	0
1.11589006472 	0.0667424547819 	0
1.15688015816 	0.109392246826 	0
1.14583761545 	0.156294227814 	0
1.05276537535 	0.164677681015 	0
0.916808454824 	0.131033275481 	0
0.801694551562 	0.0996856291824 	0
0.759193080492 	0.0812398668088 	0
0.77663110009 	0.0751514573899 	0
0.837140223285 	0.0759889493448 	0
0.913795021992 	0.0676686856728 	0
0.967627196163 	0.0492912446607 	0
0.998784096586 	0.029121875784 	0
1.01548856754 	0.0156574003816 	0
1.02327434806 	0.00749030707807 	0
1.02663102453 	0.0030694946923 	0
1.02748699716 	0.000817077228634 	0
1.0273543546 	-0.00015863642987 	0
1.02682117037 	-0.000379068898403 	0
1.02859376231 	0.00378321989301 	0
1.03054405792 	0.0062026478753 	0
1.03372162563 	0.00980139674961 	0
1.0374859465 	0.0147782354029 	0
1.04353018699 	0.0224381897614 	0
1.0513940136 	0.0345443696882 	0
1.06065492672 	0.0530833776816 	0
1.07630405745 	0.0823380252117 	0
1.09664600402 	0.132128738103 	0
1.08688749131 	0.198441726781 	0
1.02641266729 	0.253922521895 	0
0.922694439204 	0.274650109854 	0
0.823666365246 	0.266260321533 	0
0.784627964216 	0.240532903422 	0
0.797869661337 	0.211083879803 	0
0.859212895783 	0.182738368509 	0
0.944332728086 	0.14517382401 	0
1.00331970632 	0.0975048386578 	0
1.02795318453 	0.0556058537016 	0
1.03370422623 	0.0304182271238 	0
1.0336904602 	0.0159202543941 	0
1.03233370093 	0.00797160735199 	0
1.03038986305 	0.00363524271947 	0
1.02866908073 	0.00143008200328 	0
1.02727168613 	0.000512230503538 	0
1.02625730346 	0.00341892282083 	0
1.02738545954 	0.0056401728576 	0
1.0290307708 	0.00898873549732 	0
1.030600075 	0.0140254906404 	0
1.03256004471 	0.0220840733655 	0
1.03445252926 	0.0353690039837 	0
1.03480600762 	0.0563780435273 	0
1.03495157594 	0.0877126919644 	0
1.03484455287 	0.13714533016 	0
1.01383933086 	0.20354630852 	0
0.968277973748 	0.274959645098 	0
0.899770683658 	0.321615106571 	0
0.834972691657 	0.325664939438 	0
0.814427152277 	0.304347172785 	0
0.833663394958 	0.270551147699 	0
0.903118014792 	0.225551706365 	0
0.999051372939 	0.165309131168 	0
1.05821494461 	0.100274966583 	0
1.06778550583 	0.0550151862035 	0
1.05669312507 	0.0306638140898 	0
1.0466673013 	0.0163392530162 	0
1.03955102025 	0.00864273308996 	0
1.03435034382 	0.00412856649702 	0
1.03065338367 	0.00174779532593 	0
1.02811455733 	0.000714691052644 	0
1.0244758016 	0.00227734910121 	0
1.02494461845 	0.00382144012617 	0
1.02520475441 	0.0062422471031 	0
1.02449166566 	0.010014363382 	0
1.02216292782 	0.0164229767334 	0
1.01730471497 	0.0273471337226 	0
1.00819220619 	0.0460638666414 	0
0.995536814064 	0.0734828905056 	0
0.978710166721 	0.11527913095 	0
0.943084185189 	0.172835368797 	0
0.902305516195 	0.239665467494 	0
0.866516329022 	0.29652191822 	0
0.837887019833 	0.31308233467 	0
0.837924561859 	0.296804147331 	0
0.874678731011 	0.256837679964 	0
0.9659892845 	0.1899648452 	0
1.07074086984 	0.11369216429 	0
1.11280861089 	0.0565776702288 	0
1.09818347624 	0.0301700720002 	0
1.07312649716 	0.0175208215429 	0
1.05599473732 	0.0092991859432 	0
1.04472251275 	0.00514342209569 	0
1.03734978585 	0.00243303970263 	0
1.0322026634 	0.00104086201718 	0
1.02881540724 	0.000382274867797 	0
1.02354707276 	0.000829150897224 	0
1.02361808802 	0.00131086834784 	0
1.02301890511 	0.00205626528676 	0
1.02079757254 	0.00304642429635 	0
1.0154997513 	0.00491635187658 	0
1.00527932856 	0.0083695001006 	0
0.988729786296 	0.0162984057735 	0
0.966498544051 	0.0295542594536 	0
0.935419690858 	0.054144611124 	0
0.887244928238 	0.0926062781565 	0
0.844591946235 	0.135551161629 	0
0.827936132609 	0.179956823606 	0
0.834670169903 	0.201840132416 	0
0.870365097592 	0.18883760764 	0
0.942157062076 	0.139283802705 	0
1.04736748147 	0.0670260911502 	0
1.13164090142 	0.0141584376002 	0
1.14076084419 	-0.00415102514213 	0
1.10698194611 	-0.0027220608486 	0
1.07796261594 	-0.00127585974226 	0
1.05902126193 	-0.00137317503792 	0
1.04632986324 	-0.000888720370649 	0
1.038299373 	-0.000852888429203 	0
1.03261627929 	-0.000549114920645 	0
1.02899879224 	-0.000391243390152 	0
1.02356079304 	-0.000559670835697 	0
1.0237669569 	-0.00128968244644 	0
1.02339680914 	-0.00264189196345 	0
1.02159384028 	-0.00518279682885 	0
1.01664228584 	-0.00944660541441 	0
1.00580667646 	-0.016482046291 	0
0.986539172107 	-0.0257779411946 	0
0.957775745431 	-0.0341258313424 	0
0.915306851774 	-0.0332895273047 	0
0.860331840446 	-0.0224669492497 	0
0.8177714414 	-0.013198243654 	0
0.807509451734 	-0.00563292020291 	0
0.836506565497 	-0.00198154531376 	0
0.906817288059 	-0.0112562830611 	0
1.00375576 	-0.0416834230722 	0
1.095777749 	-0.0740584575276 	0
1.14198385199 	-0.0739871380911 	0
1.12998910467 	-0.0510375717843 	0
1.09652146852 	-0.0298836209663 	0
1.0726254896 	-0.0181790798914 	0
1.05612724199 	-0.0115266305396 	0
1.04450630588 	-0.00711741164988 	0
1.03712883124 	-0.0045581846813 	0
1.03176746566 	-0.00266399811415 	0
1.02844120703 	-0.00154279810302 	0
1.02452101351 	-0.00169887538587 	0
1.02556472622 	-0.00338006216936 	0
1.02666819782 	-0.00639338697723 	0
1.02743581651 	-0.0116271163244 	0
1.02663838115 	-0.0205679228152 	0
1.02155718291 	-0.0357878795655 	0
1.00582486715 	-0.0604795094047 	0
0.973730951922 	-0.0902653713191 	0
0.922936094704 	-0.113051822479 	0
0.864704986985 	-0.128107419279 	0
0.82597919995 	-0.144489152333 	0
0.817216253016 	-0.163416081317 	0
0.844781007251 	-0.177960087775 	0
0.916604734284 	-0.181503806163 	0
1.0092388321 	-0.175562549803 	0
1.08258796842 	-0.158165188177 	0
1.10845481571 	-0.121727863666 	0
1.09544173832 	-0.0790134863764 	0
1.0749220143 	-0.0484395600361 	0
1.06020724899 	-0.0303738904685 	0
1.04847294615 	-0.0189139699673 	0
1.03976031523 	-0.0116761410911 	0
1.03410725689 	-0.00727628202705 	0
1.0298200373 	-0.00432655908593 	0
1.02713897859 	-0.0025272296694 	0
1.02620113979 	-0.00224674226909 	0
1.02850250879 	-0.00427301979427 	0
1.03170653483 	-0.00777045978797 	0
1.03603315098 	-0.0136763861814 	0
1.0413212953 	-0.0235548456626 	0
1.04630561417 	-0.0405975197963 	0
1.04121355318 	-0.0701324093702 	0
1.01042673547 	-0.113626602159 	0
0.953539119822 	-0.156010930732 	0
0.891212992831 	-0.189182558642 	0
0.851841570085 	-0.219145069855 	0
0.839736893602 	-0.243556029494 	0
0.853325975611 	-0.25987480577 	0
0.903865909431 	-0.258640768788 	0
0.976841691407 	-0.23433356521 	0
1.0375430875 	-0.191066837841 	0
1.05906130449 	-0.138418368388 	0
1.05373505614 	-0.0921391805969 	0
1.0476840127 	-0.0586866760365 	0
1.04283904016 	-0.0365593247395 	0
1.03729589823 	-0.0221908234203 	0
1.03282220424 	-0.0133550506669 	0
1.02971443368 	-0.00805147167295 	0
1.02707574186 	-0.0046896603378 	0
1.02532990803 	-0.00268103086845 	0
1.02794474159 	-0.00196237925084 	0
1.0313173358 	-0.00363024420235 	0
1.03633391663 	-0.00633759837827 	0
1.04365757928 	-0.0108652017468 	0
1.05426542487 	-0.0180370988086 	0
1.06888487096 	-0.0306555507912 	0
1.07929800743 	-0.0522733938325 	0
1.05990401273 	-0.0938375512898 	0
0.999467035632 	-0.149145523908 	0
0.927451121252 	-0.197800720572 	0
0.879902504269 	-0.23623680653 	0
0.859062687482 	-0.260680083911 	0
0.858905800835 	-0.273374477026 	0
0.887463027114 	-0.26765795451 	0
0.933944782878 	-0.234321822722 	0
0.981148926938 	-0.182115716186 	0
1.00769455814 	-0.127380984347 	0
1.01375769209 	-0.0855502205339 	0