1.01390875418 	-0.008037523028 	-1.18516033792e-21
1.01495721949 	-0.0124677214681 	-9.14931964082e-22
1.01617508279 	-0.0173531649049 	3.60258451644e-22
1.01754381112 	-0.0230170241075 	-1.92041970311e-23
1.0187352814 	-0.0295549466089 	-3.74832824667e-22
1.01926561241 	-0.0372756593622 	-2.17866326914e-22
1.01810100417 	-0.0459483854925 	-2.45110053141e-22
1.01353742959 	-0.0545513917018 	-1.30717730825e-21
1.00377086838 	-0.0646286999038 	1.91056325521e-20
0.984630707272 	-0.0692011377427 	1.51747512417e-21
0.957174829459 	-0.0626226495908 	6.52772400925e-23
0.928875447531 	-0.0366177537517 	1.95893818968e-21
0.916403725697 	0.00745294652555 	-4.18712341293e-24
0.931184079974 	0.0508740113877 	2.16478887548e-22
0.961213451588 	0.0750209596977 	-1.56762125246e-21
0.98946383268 	0.0793197293691 	1.8640670751e-21
1.00871827293 	0.0723283908666 	1.9302015101e-20
1.01805337364 	0.0597039063973 	-1.54318216741e-21
1.02202084538 	0.0495623049329 	-1.58381421956e-21
1.02232446985 	0.0393713684801 	3.33009939094e-22
1.02101874447 	0.0306311624416 	8.00916215856e-22
1.01912559234 	0.0234252206116 	-2.0987166643e-23
1.01716386378 	0.0173847911005 	-4.19783051059e-22
1.01551257811 	0.0123189602738 	9.83350428051e-22
1.01415884685 	0.00780665034185 	9.9031639953e-22
1.01836783232 	-0.00866354454167 	3.83956626298e-22
1.01986708374 	-0.0134482059986 	7.85609682922e-22
1.02180973004 	-0.0189918584236 	4.22844837256e-22
1.02409232831 	-0.0254255606883 	-1.09315888719e-22
1.02647951199 	-0.0331152893009 	5.71284218552e-22
1.02841460096 	-0.0425767084349 	-2.39096072201e-22
1.02891893475 	-0.0541915567898 	4.03709563109e-22
1.0261312803 	-0.0687852911227 	1.52849432858e-22
1.01595316974 	-0.08644277309 	-5.3776806138e-22
0.9920511908 	-0.103513208171 	-2.35843216176e-21
0.945571055176 	-0.110447487456 	-3.52306132272e-21
0.88009862613 	-0.0787522622642 	9.89682351574e-21
0.844880501518 	0.00910854897075 	1.66482540653e-22
0.884419980992 	0.095326000516 	9.76803453574e-21
0.952153757511 	0.124031082579 	-8.59369942758e-21
0.999718491393 	0.114022770254 	-2.2663670181e-21
1.02366462974 	0.0938737408478 	-5.20872666366e-22
1.03297888684 	0.0734761087599 	-3.3059122135e-22
1.03459575559 	0.0566995151018 	-7.48621245416e-22
1.03279421166 	0.0435873648138 	3.7160077812e-22
1.0295707922 	0.0331742615066 	-8.38614230522e-22
1.02608709118 	0.0249936054337 	1.47851722482e-22
1.0229833568 	0.0183802895649 	-6.39405580789e-22
1.02043294274 	0.0128560461224 	-8.83024384862e-22
1.01853630755 	0.00817268248277 	-8.43915750081e-23
1.02304023339 	-0.00897676508154 	8.09832186385e-24
1.02516328661 	-0.0138624491543 	2.74632339149e-22
1.02797193565 	-0.0197865163847 	-2.28198802337e-22
1.03144248826 	-0.0267144483944 	-5.08226580795e-25
1.0355305036 	-0.0352017709495 	1.32510592898e-22
1.03983970057 	-0.046019179357 	5.35283376068e-23
1.04359942136 	-0.0601403396676 	-1.4824936735e-22
1.04520919214 	-0.0793918028555 	-5.05059106578e-22
1.04105390171 	-0.106418898628 	-5.43996634499e-24
1.02162779859 	-0.145655688164 	7.21309032751e-22
0.960370646524 	-0.193820283325 	1.25801446829e-20
0.805839661156 	-0.198257565432 	-2.01642914286e-21
0.667679858485 	0.0120407902752 	-2.65216337241e-21
0.814918007218 	0.216628949017 	-3.786118044e-21
0.970232742709 	0.207260015325 	1.23280743818e-20
1.03266533983 	0.15552835783 	-7.61533760301e-22
1.05201410659 	0.112343661108 	-4.30220168667e-23
1.05483869208 	0.0819035750652 	1.06011470481e-21
1.05115327152 	0.0602341011303 	3.52382660949e-22
1.04525996246 	0.0448413951396 	-1.25439646715e-22
1.03908094419 	0.0334948408149 	-1.77154743848e-22
1.0335615107 	0.0249622293287 	1.73988479568e-24
1.02906606627 	0.0182238360444 	3.82945124418e-22
1.02552969162 	0.0126288703812 	-4.28471367447e-22
1.02295138445 	0.0081013326837 	-4.48658386152e-22
1.02783564768 	-0.00882301635675 	1.83635691647e-23
1.03059958754 	-0.0136953569115 	1.8085585702e-23
1.03434686629 	-0.019554901227 	4.32708226326e-23
1.0392298818 	-0.026560763924 	3.33446581324e-23
1.04526813295 	-0.0351944359121 	3.68770302452e-23
1.05247165791 	-0.0464831977169 	1.44788872671e-23
1.06073564588 	-0.0615588221629 	-2.85383543797e-22
1.0697878874 	-0.0827964077938 	-3.7846865293e-22
1.07892196973 	-0.115244576451 	5.81351280348e-22
1.08466271076 	-0.171932545393 	-1.44449288218e-21
1.06929313043 	-0.290200114307 	1.21993639946e-21
0.857937827084 	-0.579256112874 	-5.23323030158e-22
0.877956047212 	0.588167257851 	1.07355643516e-21
1.08128513156 	0.302200484286 	-7.53669814136e-22
1.10017333336 	0.180823666567 	-7.79678515036e-22
1.09440666199 	0.118112881258 	-2.6741767351e-22
1.08252831443 	0.081281714967 	5.68383095931e-22
1.06988577693 	0.0577168880788 	1.26352464913e-22
1.05840668375 	0.0420317658378 	1.81502185731e-23
1.0487215821 	0.0310191779461 	2.28783374586e-23
1.04095143949 	0.0230668387302 	9.13824459677e-24
1.03493513018 	0.0168328660037 	-6.6947710014e-23
1.03044610917 	0.0117081029403 	8.20929852731e-25
1.02723294067 	0.00751574922469 	-7.14361733586e-24
1.03249058466 	-0.00804526201126 	7.88515069057e-24
1.03587005751 	-0.0128025551842 	-3.45794586262e-23
1.04056062483 	-0.0181897160462 	-3.81535619987e-23
1.0468797124 	-0.024769145284 	1.16304111554e-24
1.05488826595 	-0.0329076113179 	-7.58610066509e-23
1.06504077238 	-0.0434436865628 	-5.5317826824e-24
1.07779964406 	-0.0572713794184 	-6.88884589209e-24
1.09432530245 	-0.0760394156188 	3.42236800126e-23
1.11805895813 	-0.103363555864 	-5.7095027648e-22
1.15848308289 	-0.148368692532 	-2.73005769357e-22
1.24990775156 	-0.235927306695 	2.46903812265e-22
0.0381619967555 	0.00152106857135 	-1.73411332382e-21
1.26235816431 	0.258010314037 	-2.07567665382e-22
1.18310950974 	0.157750108494 	2.85308746909e-22
1.14057471151 	0.100927941573 	8.00374932589e-22
1.11042537051 	0.0678572151271 	-2.37613988096e-22
1.08771266118 	0.0476591442726 	-2.78483547679e-24
1.07040772706 	0.034710297602 	4.78195527202e-24
1.05726051317 	0.0258257150849 	5.74371981978e-23
1.04745646649 	0.0193751855944 	-1.55518382698e-25
1.04009071101 	0.0143130971811 	1.07258612054e-23
1.03481645822 	0.0101538280418 	4.59366917551e-24
1.0311192956 	0.00639872838715 	1.26988510594e-23
1.03653500337 	-0.00711387860004 	-4.53908952055e-24
1.04054423713 	-0.0109635323041 	5.63046043423e-23
1.04617783859 	-0.01569888037 	1.90987360885e-23
1.05377111646 	-0.0213157640495 	1.35086422455e-23
1.06348136202 	-0.0282989434863 	1.50192686353e-22
1.07604750407 	-0.037145046321 	2.31428258195e-22
1.09189197376 	-0.0481446073808 	-1.3043329928e-21
1.11272911459 	-0.0613817006498 	3.99563621116e-22
1.14239867717 	-0.0759220396364 	1.72541400358e-21
1.19270045724 	-0.0877952885204 	-1.06919139142e-20
1.28254121907 	-0.0835111596222 	3.15715752416e-20
0.158802139729 	-0.0118047443523 	1.92278125643e-21
-0.000501268805478 	0.00546093046712 	-4.18730784651e-22
0.107698794853 	0.0411893781988 	1.03030141766e-22
1.32160606192 	0.133445879114 	-2.98293135522e-20
1.23975548356 	0.0938145823802 	9.88035841009e-21
1.1748734467 	0.0614503727588 	9.71115842342e-22
1.131003338 	0.0422819786594 	2.19956628413e-22
1.10042500489 	0.0307756985006 	1.31275935194e-21
1.07891678215 	0.023487581805 	-2.1953465327e-22
1.06334173123 	0.0183384353125 	-1.69433706154e-22
1.05223176725 	0.0143187863422 	-7.90363853234e-24
1.04405182262 	0.0109787770007 	-2.18130230783e-24
1.03819704597 	0.00794324009122 	-2.16040954533e-23
1.03417469072 	0.00528997184563 	-5.82312489175e-23
1.0399875178 	-0.00555643104803 	1.79345315219e-23
1.04437592413 	-0.00843408970668 	-4.30488960829e-22
1.05079300993 	-0.0122035341259 	4.97846590992e-22
1.05942801629 	-0.0164375901013 	-3.88060841112e-24
1.07048939817 	-0.0218778015183 	-4.00072536176e-22
1.08461578155 	-0.028571158592 	-3.85585444549e-22
1.10216399032 	-0.0365433561179 	1.0802331621e-21
1.12315277598 	-0.0447519797857 	3.57530519386e-21
1.14841604062 	-0.0493975380923 	8.91541874548e-22
1.18022535724 	-0.0381954542417 	3.13710732738e-21
1.19399436947 	0.0291323421591 	3.26427776372e-21
0.222906236472 	0.181079440654 	-4.64420444661e-21
-0.171202750098 	0.283246754188 	-3.1987327328e-21
0.362056850475 	0.162111316214 	-6.14353829465e-21
1.32793493687 	0.0281656221384 	-2.28384540664e-21
1.26583982993 	0.0145304845798 	-3.60869791081e-21
1.18792445984 	0.00904969571406 	-1.16557396149e-22
1.13816473171 	0.00958923408439 	-4.50040612124e-21
1.10476167991 	0.010377200296 	-1.27526798285e-21
1.08217023 	0.0105023177431 	3.16442533034e-22
1.06622061899 	0.0099141388813 	3.58468357466e-22
1.05481071107 	0.00877089013396 	3.5039024612e-24
1.04651381067 	0.00731794117713 	-3.63502467394e-22
1.04050128322 	0.00551825431414 	2.9226088544e-22
1.03653021873 	0.00384984340717 	2.34533357528e-22
1.04253190955 	-0.00370830110798 	-3.42252281671e-22
1.04720307448 	-0.00550209172125 	-9.17030804036e-22
1.05407490187 	-0.00793042734945 	-5.97691831411e-22
1.06342297643 	-0.0105252802836 	9.7532429541e-23
1.07538137016 	-0.0140381967454 	-8.24086355625e-22
1.09100604448 	-0.0183737157766 	5.09602970817e-22
1.1092225421 	-0.0238898962 	-1.23242077588e-21
1.12919189251 	-0.0299836794308 	-8.22272330147e-23
1.14888490519 	-0.0344548499835 	-1.94892216372e-21
1.15285552583 	-0.0297694759787 	-2.32482780167e-21
1.04018927062 	0.0392456255195 	2.9062954398e-21
0.0699424866661 	0.228633605086 	7.16310453078e-21
-0.118794889598 	0.212463718298 	6.44408324533e-22
0.659571225124 	0.00538012115206 	1.50079399911e-20
1.32087210577 	-0.127269418989 	-2.55776870829e-21
1.24843033226 	-0.0819440784452 	-2.74175744491e-21
1.17774778162 	-0.046682003053 	-2.13713696439e-21
1.12827125511 	-0.0229888078622 	3.2225012057e-22
1.09961114471 	-0.00901091669615 	1.7598417765e-21
1.07975472799 	-0.00149226589794 	-6.20628943709e-22
1.06548629628 	0.00222310539171 	8.21338170902e-22
1.05515477986 	0.00370111210626 	-8.26739142111e-23
1.04746587671 	0.00390216664221 	4.63859406172e-22
1.04183314537 	0.00326138121377 	5.68194668575e-22
1.03810996546 	0.00242872404187 	3.8811876711e-24
1.04393090512 	-0.00171727907076 	9.99672813882e-22
1.04881065303 	-0.00242461611955 	8.52742606815e-22
1.05576857352 	-0.00322281339618 	-3.62116169147e-22
1.06549780876 	-0.00391158122076 	-1.27834540339e-22
1.07802005146 	-0.00510621547169 	4.4537749004e-22
1.09424968002 	-0.006821079258 	1.96842704823e-22
1.11488022107 	-0.00883793799114 	-2.244698199e-22
1.13594101951 	-0.0163560652387 	5.65783805924e-22
1.15769820037 	-0.0274397254401 	1.85655548767e-20
1.15845262392 	-0.0530159132638 	7.49134869936e-22
0.927884338916 	-0.0428754205587 	1.48973715672e-24
0.0634232056238 	-0.0604232659685 	1.38178549637e-21
0.0724618618956 	-0.230511839655 	-3.66748212855e-22
0.836179595977 	-0.362995014561 	2.66741661607e-21
1.23026547008 	-0.288513210305 	-2.43259814968e-21
1.17503570931 	-0.158947164674 	3.18557452797e-21
1.13202210181 	-0.0853610795422 	2.80371958898e-20
1.10354000395 	-0.043839408756 	5.92947688796e-22
1.08671637267 	-0.0231623496263 	2.73047707856e-21
1.07272202211 	-0.00981180013797 	-2.60055665837e-22
1.06196433213 	-0.00330059226017 	-6.4120780419e-22
1.05373567042 	-5.5297307746e-05 	1.26940523016e-22
1.04720350988 	0.00125753232991 	2.56796596926e-22
1.04239531871 	0.00151380793996 	-5.04996901569e-22
1.038896054 	0.00131105625257 	-3.96131344724e-22
1.04426794024 	0.000396485718377 	-1.31154716023e-21
1.04900648386 	0.000834463097869 	-4.90594761403e-22
1.05571908019 	0.00155804830503 	-1.21082033919e-22
1.06538431744 	0.00297140826993 	-3.62690560667e-22
1.07845244714 	0.00460667535515 	1.73893846983e-22
1.09438237553 	0.00786130363834 	-9.66943296385e-22
1.1156097356 	0.00644569004272 	-9.52586788867e-22
1.1450468005 	0.00507510602193 	-9.909963551e-22
1.18107898266 	-0.00413521580427 	2.55540579846e-21
1.21384769046 	-0.0512953917981 	1.40998608349e-22
0.970683532669 	-0.114788871838 	-2.16215846755e-21
0.246505101936 	-0.368180918485 	-1.20531896446e-21
0.213255553927 	-0.522747003137 	-8.76010425925e-22
0.779078380959 	-0.474317075581 	3.1333531408e-21
1.06035995724 	-0.327914584741 	-2.4762861123e-21
1.06141831921 	-0.174853021347 	1.14589693997e-21
1.07318540804 	-0.0937114016955 	2.8997151458e-21
1.07197981912 	-0.0496442525687 	-8.06992420624e-22
1.067542137 	-0.0247686139091 	9.45705227724e-22
1.06390862251 	-0.0127686010611 	9.37786456325e-22
1.05739386977 	-0.00560738777221 	-1.30698479178e-21
1.05143910605 	-0.00200688591698 	2.38654647035e-22
1.04625528831 	-0.000348559544404 	4.64287617027e-23
1.04228472444 	0.000257784643188 	5.42996242024e-22
1.03917384952 	0.000430963820624 	2.25216763787e-22
1.04337946021 	0.00212907060156 	1.58961951856e-21
1.04774934904 	0.00411675816718 	-3.11869909444e-21
1.05384743007 	0.00599858705584 	1.75961461805e-21
1.06242469194 	0.0100457223286 	7.39277536058e-24
1.07428097854 	0.0136642625777 	2.51072413609e-21
1.08992399001 	0.0187658612166 	-6.16452497902e-22
1.11185679059 	0.0273711726805 	-2.11752536378e-21
1.14381548632 	0.0345035991637 	1.22788561329e-22
1.1973901347 	0.0439199490099 	1.3633800599e-21
1.26015373873 	0.031769132797 	1.08603264711e-21
1.14986414453 	-0.00361721948339 	-8.36842608814e-21
0.518159346548 	-0.313174369717 	1.57086537849e-22
0.271978884977 	-0.507947447597 	-4.39171321386e-22
0.597022636911 	-0.426497421359 	4.68048098114e-23
0.896434619275 	-0.243857694718 	-1.2539416582e-21
0.967273745068 	-0.123835938668 	2.67320162683e-22
1.01860683546 	-0.0656069344105 	4.47566330114e-22
1.0443676776 	-0.0330585682292 	7.77144690687e-23
1.05368203077 	-0.0175564490614 	-1.39261621764e-21
1.05461468687 	-0.00870176344773 	-4.98750895233e-22
1.05283363915 	-0.00480559783161 	1.29288139015e-21
1.0493363589 	-0.0023885988362 	-1.3057547018e-24
1.04524625875 	-0.000927076967089 	-1.24613793546e-21
1.04186423806 	-0.000492598305462 	1.9840575345e-21
1.03906962836 	-0.000132833874707 	-4.41403324862e-23
1.04165062266 	0.00350101257368 	-1.22427448282e-21
1.0455080689 	0.00673462063557 	6.55748958576e-23
1.04989617017 	0.00989335247677 	3.62698004479e-21
1.05711631206 	0.0138897611031 	-1.77676718986e-21
1.06715633651 	0.0209512377865 	2.64931675081e-21
1.07989273543 	0.0310938956504 	-2.94169499176e-21
1.10019253209 	0.0465295582142 	3.33690969366e-22
1.12466225109 	0.0668355666605 	-1.41422387366e-23
1.17650276738 	0.099255064283 	3.31004271159e-21
1.24829136354 	0.154126807885 	-4.13423507e-21
1.18221219218 	0.191003876637 	5.38539526813e-21
0.836664065012 	0.10360585331 	4.61821341783e-21
0.440263323563 	-0.135252838554 	-2.63602418329e-22
0.44328674141 	-0.247850052471 	2.32529289348e-22
0.744742830107 	-0.10183569429 	-3.8055914035e-22
0.915744148659 	-0.022359281065 	7.95629740998e-22
0.989201148288 	-0.0113009849846 	-6.4997581876e-22
1.03188276436 	-0.00437043892155 	3.32690981365e-24
1.04708700407 	-0.00258162121727 	1.86907541545e-22
1.05195303045 	-0.00198150254258 	-1.3836112439e-21
1.05097828975 	-0.001451756304 	1.24398557687e-21
1.04776070002 	-0.00126791943089 	-2.16760988312e-22
1.04448672143 	-0.00171493136614 	-2.1069763472e-21
1.04153311548 	-0.00103584900458 	1.03080918409e-24
1.03883897414 	-0.000609188624556 	4.08885020353e-22
1.03908035917 	0.00448047206461 	1.03286311122e-21
1.04229472364 	0.00759023030612 	-5.85487382053e-22
1.0454493119 	0.011083754076 	-4.06957734987e-22
1.05039895474 	0.0168346700766 	3.14066114246e-22
1.05778101902 	0.0255376478463 	1.96111245916e-22
1.06614219528 	0.0379678625488 	1.11674348088e-21
1.07830301893 	0.0587163654163 	1.63554100735e-22
1.091453974 	0.0865191116424 	-9.84267114744e-23
1.11721877371 	0.134274053253 	-1.9672233494e-22
1.16036032133 	0.223866767031 	1.77491878073e-22
1.12644063308 	0.31912295687 	-1.9236315042e-21
0.93667836885 	0.366115500333 	-1.850727352e-21
0.631889039804 	0.256214641975 	-5.23267741087e-22
0.509918714591 	0.116638062651 	-3.98242271173e-22
0.648217918269 	0.0735510014939 	-3.80814160378e-22
0.906498345116 	0.0914197257861 	-1.6331400498e-22
1.00741807468 	0.0583538093204 	3.09375623104e-23
1.04259722046 	0.0264157981858 	1.34288907126e-22
1.05371889412 	0.0129923635991 	8.68538971699e-23
1.05520554611 	0.00405564808876 	2.20401153839e-22
1.05256180065 	0.000612224925964 	2.48518145415e-22
1.04884081466 	-0.000750949792184 	1.52657858967e-22
1.04411995032 	-0.00120020991811 	-1.88921943673e-22
1.04117412265 	-0.00137348809981 	-5.99832336625e-22
1.03822140056 	-0.00133209614307 	-3.85233464961e-22
1.036304646 	0.00474648552432 	-2.85181115419e-21
1.03812258364 	0.00746986503039 	9.38808247568e-22
1.04099731399 	0.0112981113838 	-2.30816810458e-24
1.04410875233 	0.0170380700414 	7.60488147333e-23
1.04736087113 	0.0257042775865 	-5.21154123978e-22
1.04940681591 	0.038087211702 	-2.91173425219e-22
1.05170674987 	0.0600434557633 	1.0798949885e-21
1.05152795608 	0.0898410015968 	3.24420179312e-23
1.04209409556 	0.143679215845 	4.94575184101e-23
1.04776753225 	0.222227858371 	-1.27556326629e-22
1.0214687001 	0.342995564966 	-8.84998116874e-22
0.901414510919 	0.415407799955 	8.82301037714e-24
0.703566942097 	0.428062457655 	-3.87934743789e-22
0.608072314239 	0.385379032245 	3.50452097387e-23
0.701059973806 	0.301436702057 	5.05083343824e-23
0.962813701557 	0.174034690789 	6.60676021044e-24
1.08599324715 	0.114548932576 	-2.08497547456e-23
1.08686645851 	0.0415638538587 	1.86499919155e-23
1.07179529226 	0.0185786710347 	-1.89774172602e-22
1.06460971402 	0.00637910031351 	2.48609333057e-22
1.05610487916 	0.000348737923149 	-2.48857775648e-23
1.04996752892 	-0.00129394535244 	2.359192953e-23
1.044608839 	-0.00249020463882 	1.39652104843e-23
1.04014152079 	-0.00191600378194 	4.04312375566e-22
1.03762481401 	-0.00198459272442 	1.26863445069e-22
1.03379110247 	0.00376176685024 	-6.09120397372e-22
1.03501668086 	0.00632030499477 	-6.43704721135e-22
1.03602847589 	0.00960205272047 	2.00733665618e-22
1.03703157626 	0.0143430829938 	6.13364606505e-24
1.03646153507 	0.0209809870594 	1.73035484866e-22
1.03338559721 	0.0311091098682 	3.37272438824e-22
1.02823933626 	0.0477427401774 	2.15896627124e-23
1.01386652772 	0.0734158537359 	-2.34043998796e-22
0.986220204968 	0.115169031487 	1.44843485784e-22
0.952794006138 	0.182776048826 	9.17286783087e-23
0.909335829707 	0.28327248086 	-1.64085057156e-22
0.808294452943 	0.393139865608 	0
0.689409292465 	0.449543367503 	-5.47682602394e-36
0.678444967003 	0.42465832464 	-8.68259098034e-25
0.842676768586 	0.311160204671 	-8.84031692094e-23
1.06999902494 	0.164782483472 	-4.2019897399e-23
1.16015157693 	0.0759270710114 	8.50804996393e-23
1.13058745666 	0.0313284734819 	1.30301914651e-22
1.09332382855 	0.0102806125891 	-1.17250332518e-23
1.07313397625 	0.00196636784489 	-4.14257249603e-23
1.0609464875 	-0.00334302197101 	6.01662570652e-23
1.05148305324 	-0.00348666457458 	3.09995674133e-23
1.04503525079 	-0.00372198188982 	6.45205832338e-23
1.0400506113 	-0.00302130439772 	-2.03833190387e-22
1.03668942627 	-0.00168313072558 	-1.84804370038e-22
1.03224860857 	0.00298820181279 	0
1.03303287707 	0.00477048363754 	0
1.03343987744 	0.00674696207919 	0
1.03311102512 	0.00947345124782 	0
1.03045219219 	0.0135340609216 	0
1.02394067081 	0.0192303166044 	0
1.01180368454 	0.0291130609189 	0
0.986122626548 	0.0469666519679 	0
0.941710383019 	0.0748936726433 	0
0.87921389997 	0.119883434968 	0
0.806195638809 	0.200703379138 	0
0.72575533681 	0.285148802036 	0
0.688355052372 	0.308658569904 	0
0.770035176986 	0.245248148553 	0
0.976518815526 	0.116959827876 	0
1.16854175006 	0.0172154548908 	0
1.20328255347 	-0.0105704682544 	0
1.14610647143 	-0.0140425986068 	0
1.10013682952 	-0.0117242891838 	0
1.07629856151 	-0.0106514963559 	0
1.06111203776 	-0.0104866184993 	0
1.05049744048 	-0.00746634971752 	0
1.04383460804 	-0.00622382962494 	0
1.03884305122 	-0.00447122203292 	0
1.03555400718 	-0.00273800304282 	0
1.0310857247 	0.00193768114617 	0
1.0319088358 	0.00275289049798 	0
1.03233233314 	0.00321794953521 	0
1.0316492037 	0.00329989397309 	0
1.02843221264 	0.00282729315207 	0
1.02081579597 	0.000963527411536 	0
1.0040876288 	-0.00216496300497 	0
0.972011281617 	-0.00579304770315 	0
0.916600464012 	-0.00830102121732 	0
0.830322882608 	-0.000895595662706 	0
0.749762195447 	0.0320624358875 	0
0.708463867131 	0.0527757046611 	0
0.742175826279 	0.029405826668 	0
0.884692790048 	-0.0422606345675 	0
1.07030838595 	-0.1210222066 	0
1.18589350746 	-0.129737064886 	0
1.18316233667 	-0.0897338002525 	0
1.12730336144 	-0.0561946434304 	0
1.08944566566 	-0.0357729289645 	0
1.07041817572 	-0.0245781854056 	0
1.05670542843 	-0.0177320478564 	0
1.04704693574 	-0.0120312874201 	0
1.04130172286 	-0.00877055191463 	0
1.0366819928 	-0.00588188373629 	0
1.03381865086 	-0.0036776635347 	0
1.03046584406 	0.000972270300743 	0
1.03167120981 	0.00098633358164 	0
1.03280081962 	0.000128696368702 	0
1.03344450642 	-0.00219851971642 	0
1.03236025467 	-0.00728712786428 	0
1.02863160355 	-0.0173036995014 	0
1.01769040754 	-0.0348314022735 	0
0.991236884576 	-0.0664749602661 	0
0.933241236064 	-0.106174769047 	0
0.834627296229 	-0.139830617854 	0
0.754711738047 	-0.157399157756 	0
0.734592685796 	-0.182249698822 	0
0.791602107654 	-0.217964351456 	0
0.931552744876 	-0.246837507454 	0
1.06810065933 	-0.247631752022 	0
1.13200620782 	-0.194793504614 	0
1.12578914901 	-0.123994174083 	0
1.09272672123 	-0.0767726891718 	0
1.07056721784 	-0.050377910277 	0
1.05879341575 	-0.0335449410058 	0
1.04916070193 	-0.0225466240813 	0
1.04202764311 	-0.0152616642519 	0
1.0376445672 	-0.0104007576659 	0
1.03395701287 	-0.00675933877494 	0
1.03172439359 	-0.00418664106038 	0
1.03047836628 	0.000423617372389 	0
1.03244082663 	-1.00035957091e-05 	0
1.03501093126 	-0.00164786334635 	0
1.03844524949 	-0.00524268575948 	0
1.0423289553 	-0.0122066566034 	0
1.04718618273 	-0.02594738582 	0
1.05231494972 	-0.0494289446808 	0
1.04254584173 	-0.0953224934903 	0
0.988222752168 	-0.161190180775 	0
0.880026545136 	-0.224957332574 	0
0.791774704112 	-0.271544687733 	0
0.769167771097 	-0.307868284878 	0
0.809933196771 	-0.334954979569 	0
0.916182232748 	-0.334237053258 	0
1.01138051975 	-0.286416368665 	0
1.05229201895 	-0.20702464372 	0
1.06040850366 	-0.133691778838 	0
1.05380475085 	-0.0841008393 	0
1.04780302636 	-0.0553989839171 	0
1.04353858521 	-0.0362292950469 	0
1.03927477956 	-0.0237275802424 	0
1.0356579932 	-0.0158859266808 	0
1.03305065712 	-0.0105336993679 	0
1.03073757617 	-0.00681421962874 	0
1.02925829524 	-0.004195827256 	0
1.03073059493 	0.000407679905698 	0
1.03364161342 	7.58916233891e-05 	0
1.03800036886 	-0.00123738911238 	0
1.04422514207 	-0.00422299604221 	0
1.05338913429 	-0.00925602204388 	0
1.06696196876 	-0.0199330508766 	0
1.08870904888 	-0.0371091782242 	0
1.10453441408 	-0.0713335064254 	0
1.06523648348 	-0.138354836648 	0
0.945468217888 	-0.223910820993 	0
0.83499253877 	-0.293866205152 	0
0.797162955932 	-0.335763797399 	0
0.814550953779 	-0.356323469649 	0
0.876579046746 	-0.340708814874 	0
0.933608139161 	-0.273685991571 	0
0.970896479189 	-0.191871816041 	0
0.998931094357 	-0.127052520674 	0
1.01306353558 	-0.0805959951717 	0
1.02176141405 	-0.0511731656685 	0
1.0263255412 	-0.0320168778644 	0
1.02823782997 	-0.0203259126106 	0
1.02870473784 	-0.013224181207 	0
1.02830393119 	-0.00868592962262 	0
1.02751037561 	-0.00566430383113 	0
1.02679683823 	-0.00349128585035 	0
1.03077789798 	0.000865972174275 	0
1.03425502229 	0.0011058379636 	0
1.03967893048 	0.00118671652739 	0
1.04718110601 	0.000438309865484 	0
1.05912632773 	-0.000350074058578 	0
1.07693016265 	-0.00356684269085 	0
1.10593124209 	-0.00735361052507 	0
1.14400220038 	-0.0140962084322 	0
1.14050816477 	-0.0450924967689 	0
1.03842199941 	-0.116513430231 	0
0.904552091348 	-0.207515936987 	0
0.829048243176 	-0.269777718706 	0
0.810881135274 	-0.289963407509 	0
0.827724826722 	-0.262118992285 	0
0.857349547272 	-0.197691001155 	0
0.901386750153 	-0.135209486742 	0
0.947635741501 	-0.086648272501 	0
0.977295048304 	-0.0532107839623 	0
0.997972606899 	-0.0319770784639 	0
1.01160580933 	-0.0187996753053 	0
1.01940180298 	-0.0116650575469 	0
1.02338400944 	-0.00745869379329 	0
1.02489447003 	-0.00496553861755 	0
1.02520622446 	-0.00330165257994 	0
1.02502112013 	-0.00207022898039 	0
1.03013597502 	0.0017853640391 	0
1.03346192372 	0.00281657744681 	0
1.03876632846 	0.00451170083802 	0
1.0459144915 	0.00636953298393 	0
1.05766002205 	0.00973449588223 	0
1.07457864 	0.0140514877384 	0
1.10050960639 	0.0223673858189 	0
1.1419774493 	0.0384492579886 	0
1.16742649836 	0.0547539830556 	0
1.11345021972 	0.0414787115622 	0
0.993776150337 	-0.0175622703884 	0
0.882652852763 	-0.0756439063658 	0
0.813812773934 	-0.0968819053206 	0
0.791679132079 	-0.0842767734774 	0
0.808458787206 	-0.0551621556186 	0
0.858099737979 	-0.0279723583912 	0
0.916998997311 	-0.00624004722848 	0
0.959005351456 	0.00318674035093 	0
0.987447352376 	0.0040603200722 	0
1.0063020075 	0.0028770801417 	0
1.01688181814 	0.00111426638506 	0
1.0220206817 	0.000114051635456 	0
1.02400424782 	-0.000438208483388 	0
1.02450732513 	-0.000555519702536 	0
1.02436123432 	-0.000468474309869 	0
1.02866620287 	0.00276625871613 	0
1.03139860666 	0.00454839356241 	0
1.03586802473 	0.00740329516316 	0
1.04173675852 	0.0112640182602 	0
1.05128861861 	0.0175743549379 	0
1.06434486461 	0.0272396656317 	0
1.08216205156 	0.0428423030909 	0
1.1112474944 	0.070185513341 	0
1.13763298789 	0.112055285427 	0
1.11407967212 	0.148495764973 	0
1.02906804966 	0.155061103426 	0
0.918825264477 	0.141418117279 	0
0.828310989013 	0.127631003865 	0
0.791353054889 	0.113716384253 	0
0.80217574466 	0.101383825673 	0
0.849998730579 	0.0945209072773 	0
0.915770095811 	0.0861498093007 	0
0.967425461777 	0.0676436121393 	0
0.998634250148 	0.043579760438 	0
1.01529852878 	0.0251926626037 	0
1.02267640958 	0.013791813859 	0
1.02538797664 	0.00728073338509 	0
1.02580143146 	0.00359772870129 	0
1.02540403803 	0.00166579401812 	0
1.0247375692 	0.000744340903185 	0
1.02679552741 	0.00317293590068 	0
1.02879775784 	0.00532828398116 	0
1.03198759118 	0.00873528484725 	0
1.03589509231 	0.0137651708855 	0
1.04191321209 	0.0219017703656 	0
1.04962337495 	0.0349142364746 	0
1.05802598802 	0.0550425485087 	0
1.07063403641 	0.0868905315305 	0
1.08474953726 	0.135941365163 	0
1.06654748008 	0.192970414538 	0
1.00206975114 	0.238788150191 	0
0.913993567312 	0.261068467849 	0
0.841495292374 	0.258252823618 	0
0.81479405005 	0.237985653418 	0
0.825195413528 	0.210392315514 	0
0.872023941996 	0.182205412162 	0
0.943400345277 	0.149963692431 	0
1.00166395863 	0.107374326508 	0
1.02993296817 	0.0652867887764 	0
1.0363411667 	0.0370960207766 	0
1.03491098664 	0.0207645203867 	0
1.03230471087 	0.0114628308719 	0
1.02962665339 	0.00605245509738 	0
1.02745115558 	0.00300494764977 	0
1.02578045686 	0.00144497562644 	0
1.02491786405 	0.00275879243939 	0
1.02606843363 	0.00473868669963 	0
1.02760748803 	0.00796656161628 	0
1.02892119332 	0.0130025054444 	0
1.03035402494 	0.0214372925852 	0
1.03141222769 	0.0354034344239 	0
1.03022192713 	0.0576048346204 	0
1.02874059576 	0.0896429586258 	0
1.0280789469 	0.136759259894 	0
1.00390215418 	0.197598762088 	0
0.95337062795 	0.257135535354 	0
0.894597811144 	0.294815228635 	0
0.850186129647 	0.298818526921 	0
0.840105284949 	0.281783316859 	0
0.857139152353 	0.252562036257 	0
0.91023067206 	0.212501934416 	0
0.990579413176 	0.161483183902 	0
1.05191196107 	0.102737076671 	0
1.06937070654 	0.058103906501 	0
1.06010777251 	0.0334145480028 	0
1.0484462332 	0.0190483670727 	0
1.04003579642 	0.0109831171476 	0
1.03408564853 	0.0060683522579 	0
1.0299255576 	0.00321224458859 	0
1.02710294308 	0.00162131089767 	0
1.02334915271 	0.00165632598733 	0
1.02366717263 	0.00289773187002 	0
1.02363399377 	0.00505187927269 	0
1.02237433688 	0.00847000434622 	0
1.01920456971 	0.0145383715376 	0
1.01319672865 	0.0250658610493 	0
1.00326593024 	0.0432790427955 	0
0.991034175122 	0.0687451402331 	0
0.975673692135 	0.10703798116 	0
0.940651566681 	0.160306468721 	0
0.89926529113 	0.217459064059 	0
0.868957752159 	0.263415879547 	0
0.852147264614 	0.277540407686 	0
0.860150905734 	0.26549680385 	0
0.893324755546 	0.232316394428 	0
0.964124387053 	0.175693782018 	0
1.0543543149 	0.110117882979 	0
1.10408968003 	0.0563055320255 	0
1.09944294672 	0.0294480018824 	0
1.07627199524 	0.0178591506114 	0
1.0579047373 	0.0103437875202 	0
1.04561429745 	0.0062974661565 	0
1.0375103147 	0.00358040498328 	0
1.0319422216 	0.00204161160234 	0
1.02830723855 	0.00108950814539 	0
1.02260322726 	0.000214545637578 	0
1.02253473135 	0.000282824251354 	0
1.02177069856 	0.00051016947488 	0
1.01921856082 	0.000736308874205 	0
1.0134157675 	0.00147592978847 	0
1.00244939384 	0.00336163471587 	0
0.986049626943 	0.00921082937409 	0
0.965310480317 	0.0199693180246 	0
0.936395113032 	0.0416827942822 	0
0.891598199076 	0.0755466314369 	0
0.852056336685 	0.110689852604 	0
0.837911360226 	0.144232143362 	0
0.848331597827 	0.161496690794 	0
0.885885615816 	0.155001514015 	0
0.948410118715 	0.119506835642 	0
1.03291815565 	0.0613345246376 	0
1.11037200742 	0.0140816081757 	0
1.13234775656 	-0.00503881217342 	0
1.10800562075 	-0.00424141782797 	0
1.08014524552 	-0.00169176283618 	0
1.06056315683 	-0.00113816198714 	0
1.04726089484 	-0.000484303767236 	0
1.03864460681 	-0.000382467852303 	0
1.03263968601 	-0.000153984178508 	0
1.02882262184 	-5.8410109123e-05 	0
1.02306118033 	-0.00119446582862 	0
1.02335681409 	-0.00237607964204 	0
1.02315592323 	-0.00431724505015 	0
1.02150865324 	-0.00770525568821 	0
1.01670695131 	-0.0132867155955 	0
1.00565600286 	-0.0221471524965 	0
0.986315415553 	-0.0335581533333 	0
0.958746873324 	-0.0426003425529 	0
0.919798411433 	-0.0422543683125 	0
0.870694972669 	-0.0346822754748 	0
0.833118244446 	-0.0305761898895 	0
0.823320634194 	-0.0285613411185 	0
0.847229283548 	-0.0271054703379 	0
0.908599390366 	-0.0297139827234 	0
0.993172022164 	-0.0465036183064 	0
1.07319389653 	-0.0707428679114 	0
1.12146505076 	-0.0731433785601 	0
1.12266904103 	-0.0533372101076 	0