1.01388818222 	-0.00790400157338 	-9.27459053385e-22
1.01501011664 	-0.012261536117 	-7.22935511155e-22
1.01633955133 	-0.0170807901989 	2.97558427644e-22
1.01788215608 	-0.0226730190325 	-2.53074741281e-23
1.01931328488 	-0.0291741584146 	-2.96310855722e-22
1.02015065994 	-0.036899911706 	-1.9114166443e-22
1.01937509153 	-0.0457002198863 	-2.13264522007e-22
1.01528450825 	-0.0546640356592 	-1.18900606313e-21
1.00592806698 	-0.065276782354 	1.7714506721e-20
0.986986252618 	-0.0706974491142 	1.45940712091e-21
0.959282988969 	-0.0651375023714 	7.38435066605e-23
0.93014823608 	-0.0400357316564 	1.93708886671e-21
0.916403187707 	0.00365559733097 	-4.8547886586e-24
0.929910990185 	0.0474888409849 	2.07938231961e-22
0.959119615406 	0.0725325398845 	-1.62221641035e-21
0.98713260365 	0.0778358658632 	1.95332216036e-21
1.00658394211 	0.0716770241483 	2.08965176722e-20
1.01632887205 	0.0595777224445 	-1.69855295436e-21
1.02075812626 	0.0497950901072 	-1.78997861168e-21
1.02143719264 	0.039730475447 	3.79029474098e-22
1.02043387794 	0.0310002914809 	9.53514733581e-22
1.01877604395 	0.0237619076908 	-3.47873911924e-23
1.01698472787 	0.0176536240937 	-4.951843533e-22
1.01544281646 	0.0125240849355 	1.18670274464e-21
1.01416390528 	0.00793825591763 	1.1954285181e-21
1.01825668795 	-0.00845923748177 	2.81750028549e-22
1.01981378079 	-0.0131252656432 	5.87107017919e-22
1.02185674597 	-0.0185167952114 	2.66001739151e-22
1.02430666113 	-0.0247700641759 	-8.5455320913e-23
1.02695165436 	-0.0322669878462 	4.60617221885e-22
1.029287971 	-0.041562614485 	-1.85535651923e-22
1.03034033291 	-0.053107787487 	2.98859756396e-22
1.02822183052 	-0.0678320082956 	1.28152991142e-22
1.01890993907 	-0.0860851623245 	-4.81553236259e-22
0.995581171722 	-0.104227262715 	-2.14989617773e-21
0.949099034393 	-0.112824817176 	-3.3331353847e-21
0.88243574317 	-0.0828956404147 	9.77283267358e-21
0.844843117637 	0.00416319496188 	1.66995335056e-22
0.882075828947 	0.0912239751695 	9.96577124736e-21
0.948655646265 	0.121696006426 	-9.03199869481e-21
0.996234816813 	0.113331425557 	-2.49296074044e-21
1.02076110746 	0.0942289832184 	-5.84340523052e-22
1.03091346302 	0.07439812488 	-3.83732593796e-22
1.03318521942 	0.0577530266158 	-9.28321525151e-22
1.03191634789 	0.0445734544066 	4.53829123678e-22
1.0290845069 	0.0340005201031 	-1.00189457437e-21
1.02585596007 	0.0256335030601 	1.79404487582e-22
1.02291783792 	0.0188433054687 	-8.43420572784e-22
1.02046854662 	0.0131735151095 	-1.09110756577e-21
1.01863009423 	0.00837113965877 	-7.58021724812e-23
1.02279589024 	-0.00872684476993 	6.12544815428e-24
1.02493936876 	-0.0134372823942 	1.51089280741e-22
1.02780664071 	-0.0191285908672 	-1.01465956836e-22
1.03139972041 	-0.0257603373015 	4.74959799398e-25
1.03571030903 	-0.0338721470228 	8.40224051053e-23
1.04043182411 	-0.0442573559439 	-2.19529048689e-23
1.0448747644 	-0.057981627752 	1.10760448679e-24
1.04753315619 	-0.0770507632999 	-1.7649025741e-22
1.04474312342 	-0.104414315843 	4.24296234745e-23
1.0267839158 	-0.144935854181 	5.7820631023e-22
0.966496233132 	-0.195855256678 	1.13747282932e-20
0.81062200881 	-0.204214672282 	-1.99495585906e-21
0.667616635377 	0.00386287577594 	-2.65981503373e-21
0.810091883171 	0.210743993607 	-3.8810127216e-21
0.964155137347 	0.205289180582 	1.35536603129e-20
1.02759697547 	0.156261103127 	-9.01598897714e-22
1.04839834425 	0.114316166323 	-6.62286760871e-23
1.05255872891 	0.0841774215087 	1.51630561379e-21
1.04988749055 	0.0623235132117 	5.55122146323e-22
1.04465452915 	0.0465446559919 	-2.10591135877e-22
1.03887759009 	0.0347785773792 	-2.33238848549e-22
1.03357952783 	0.0258820654114 	3.0636285011e-24
1.02920572687 	0.0188554545562 	5.42642308774e-22
1.02573310109 	0.013031572388 	-5.82386110069e-22
1.02317568867 	0.00834044150336 	-5.95773790879e-22
1.02742570978 	-0.00856098235029 	4.96546843494e-24
1.03015346462 	-0.0132293519127 	3.06035415339e-23
1.03388000247 	-0.0188040030199 	2.26938723188e-23
1.03877621953 	-0.0254039738533 	7.47191844893e-23
1.04491853753 	-0.03348044594 	9.2507958571e-23
1.05244590165 	-0.0440215370203 	5.27147067562e-23
1.06142714426 	-0.0582197406656 	-4.27372913793e-22
1.07181815182 	-0.078634342458 	-4.32587469144e-22
1.08314305305 	-0.110765638769 	7.77432765235e-22
1.09199070383 	-0.168500836935 	-1.79866806141e-21
1.08009563152 	-0.290473315371 	1.60826490012e-21
0.870062444727 	-0.588645761023 	2.31193037516e-22
0.865766728032 	0.57906349148 	1.44934982926e-21
1.07060633979 	0.302081941511 	-3.01326450372e-22
1.09303227174 	0.184267488287 	-2.47722439297e-22
1.09032228204 	0.122497398636 	-1.04064558518e-22
1.08055115447 	0.0853144669027 	4.14389436594e-22
1.06919062768 	0.0609401079365 	-3.10045647777e-23
1.05840029536 	0.0444033294294 	6.25552604712e-23
1.0490303424 	0.0326704814329 	9.69654924943e-23
1.0413661971 	0.0241770570695 	5.77111306001e-23
1.03536778163 	0.0175545268036 	-9.13318543695e-23
1.03085996731 	0.0121468448242 	1.74638217952e-23
1.02761643626 	0.00775906773101 	-1.28521527479e-23
1.0319170171 	-0.00783132155018 	2.08583371983e-23
1.03519000779 	-0.0124020186179 	-5.69042734234e-23
1.0397404634 	-0.0175018661419 	-5.92386181673e-23
1.04589991874 	-0.0236182499176 	1.56670289066e-24
1.0537814085 	-0.0310641031463 	-9.63369302042e-23
1.06398286109 	-0.040536423982 	-6.81703883622e-24
1.07722419274 	-0.0528678840586 	-8.05682777e-24
1.09512634516 	-0.069790571448 	3.99037505397e-23
1.12182387615 	-0.0953697729506 	-6.49381947577e-22
1.16742763307 	-0.139965883729 	-3.0521469061e-22
1.26618894413 	-0.23012535692 	2.65392185381e-22
0.0367572341261 	0.00148890330568 	-1.61230420149e-21
1.24638670181 	0.26415784054 	-1.85353441865e-22
1.17456810301 	0.166134817709 	2.4627648846e-22
1.13702351267 	0.108700233605 	6.62583388705e-22
1.10966275057 	0.0738776182404 	-1.90944038805e-22
1.08824231466 	0.0518957137146 	-2.14955427871e-24
1.071391966 	0.0375175110299 	2.8155211332e-24
1.05829600284 	0.0276121526795 	3.38998590371e-23
1.04838030422 	0.0204879824289 	-6.92564737313e-26
1.04086782793 	0.0149837618348 	-1.61117125628e-23
1.03545840792 	0.0105453630534 	-2.35835646828e-23
1.03165702775 	0.00660477678513 	3.09008248365e-23
1.03585141858 	-0.00702233472989 	-5.75494747324e-24
1.03966791579 	-0.0107589159322 	8.09641964413e-23
1.04502091341 	-0.0152724509754 	3.51530490805e-23
1.0522295983 	-0.0204796251959 	1.54331224036e-23
1.06145956239 	-0.0267780078077 	1.74285329336e-22
1.07354163524 	-0.0343621235834 	2.57170367105e-22
1.08917325719 	-0.0432654759515 	-1.461283757e-21
1.11072930307 	-0.0532859070786 	4.22295606334e-22
1.1433712331 	-0.0635308837291 	1.91839801193e-21
1.20113112536 	-0.0714314007555 	-1.18441068338e-20
1.30523364971 	-0.0693038005441 	3.44064878279e-20
0.17136353083 	-0.026247167333 	2.03147101437e-21
-0.000445608150196 	-0.00341826992633 	-4.16346456479e-22
0.0949162495636 	0.0302948603365 	1.27017993045e-22
1.30030194666 	0.148754166114 	-2.66011375142e-20
1.23223771099 	0.109851141259 	8.79796596465e-21
1.17415568943 	0.0732993783859 	8.6820189221e-22
1.13292611031 	0.0500090714447 	1.52409293148e-22
1.10298891083 	0.0354625320524 	1.13416202224e-21
1.08128229593 	0.0261949333881 	-1.87852700585e-22
1.06525930296 	0.0198377160761 	-1.30978462495e-22
1.05369596934 	0.0151383908431 	-6.31072223201e-24
1.04515550062 	0.0114048831995 	1.88130826982e-23
1.03903290736 	0.00814745072262 	1.05711888942e-23
1.03482654128 	0.0053872218413 	-5.63344920601e-24
1.0392674191 	-0.00564527560515 	2.7007993542e-23
1.04340272567 	-0.00854353878936 	-5.04568071788e-22
1.04941785804 	-0.0122483015081 	5.75242413084e-22
1.05744649393 	-0.0162913003533 	-4.47544520731e-24
1.06760181556 	-0.0212400759928 	-4.32493416331e-22
1.0804828558 	-0.0268209930206 	-4.1841339608e-22
1.09652823556 	-0.0325168297223 	1.16134377599e-21
1.11634311865 	-0.0362817398371 	3.82986417696e-21
1.14234286328 	-0.0331468283113 	9.84941577009e-22
1.18204472903 	-0.00969391983418 	3.52208940172e-21
1.22737610201 	0.0637207898043 	3.75085286046e-21
0.334838646729 	0.159792542738 	-5.38850604851e-21
-0.193467238939 	0.230785073014 	-3.0987220037e-21
0.278967422108 	0.156795984868 	-5.05909063425e-21
1.29846712501 	0.0635791619981 	-1.89155793828e-21
1.26556019706 	0.0411067989454 	-3.29365220245e-21
1.19391400902 	0.0241613908798 	-1.03922380215e-22
1.144506559 	0.0175228748408 	-4.18868561916e-21
1.11003990326 	0.0142557717496 	-1.16250647384e-21
1.08608991508 	0.0122525420329 	2.82856387328e-22
1.06898210727 	0.0105892135533 	3.1397319869e-22
1.05670541863 	0.00894717659475 	2.64700522427e-24
1.04783425312 	0.00729127389262 	-2.57884796461e-22
1.04142584571 	0.00540468901825 	1.89603695429e-22
1.0372156359 	0.00375828204422 	1.35556522461e-22
1.04190356062 	-0.00400195674036 	-3.87643410898e-22
1.04630358627 	-0.00601830142887 	-1.01973084987e-21
1.05272040259 	-0.00861837099872 	-6.73351967891e-22
1.06133981934 	-0.0113750524882 	1.0275763617e-22
1.07202462067 	-0.0148936113632 	-8.50107437197e-22
1.08560523617 	-0.0188315276008 	5.22815327337e-22
1.10065012791 	-0.0228016146602 	-1.26877028386e-21
1.1163947663 	-0.0247755096419 	-8.05949227402e-23
1.13011404619 	-0.0182228811434 	-2.09223033479e-21
1.13168645998 	0.00729882343187 	-2.54500818404e-21
1.06542070583 	0.108965464083 	3.98950885302e-21
0.209807746948 	0.324168634547 	8.59758085263e-21
-0.154434453226 	0.360871295802 	5.88427114283e-22
0.557926352889 	0.130364401001 	1.2562435226e-20
1.31085378139 	-0.0587108622921 	-2.23033832302e-21
1.27121279992 	-0.0496311964362 	-2.600677175e-21
1.19423699261 	-0.0327751790033 	-2.06738569463e-21
1.1401614979 	-0.0181075423521 	3.21231411368e-22
1.10761876928 	-0.00774985789776 	1.67932704059e-21
1.08492951133 	-0.00182768812697 	-5.90570186385e-22
1.06874110347 	0.00147842781761 	7.6426526969e-22
1.05719035909 	0.00292979807632 	-7.27163506248e-23
1.04879025527 	0.00326973629033 	3.54643949344e-22
1.04270965893 	0.0027879051742 	4.42096242764e-22
1.03871699811 	0.00216049343868 	2.19769230022e-23
1.04353814438 	-0.00219235388597 	1.11302497645e-21
1.04819726217 	-0.00328993891409 	9.31529181395e-22
1.05477113447 	-0.00456312344638 	-3.79087052697e-22
1.0638129537 	-0.00586175963879 	-1.38909913083e-22
1.07497164055 	-0.007848748151 	4.72044119543e-22
1.08877659165 	-0.0104119403157 	1.92485516926e-22
1.10482087815 	-0.0132827275064 	-2.13845885974e-22
1.11800647281 	-0.0193074838026 	5.22767684228e-22
1.12523991906 	-0.0244357451398 	1.60412387621e-20
1.10487156486 	-0.028747610032 	6.4903091005e-22
0.905682410122 	0.0268870086135 	-3.32757922601e-23
0.0707163396882 	0.158070146629 	1.32439816106e-21
0.0571224946558 	0.0161124079255 	-5.07747682025e-22
0.822779349887 	-0.202667140917 	2.82398023893e-21
1.27792349983 	-0.236289115462 	-2.62973815479e-21
1.22627896728 	-0.143345410266 	3.38454342029e-21
1.15984659088 	-0.0830575432759 	2.99674162851e-20
1.11979219343 	-0.0457914199149 	6.11125612381e-22
1.09653650911 	-0.0266241496549 	2.79146476636e-21
1.07809280046 	-0.0130021216888 	-2.59088114803e-22
1.06500662448 	-0.00592967017538 	-5.87962341924e-22
1.05544160534 	-0.00191804303258 	1.09045102838e-22
1.04821551122 	-2.6799327639e-05 	2.28055189257e-22
1.04300536166 	0.000692729451017 	-4.0509728973e-22
1.03927235226 	0.000843445590932 	-2.9399638067e-22
1.04421274456 	-0.000159783779402 	-1.41571269219e-21
1.04886165114 	-0.000213597866556 	-5.33152292654e-22
1.05538925612 	-0.000230533942955 	-1.2291520948e-22
1.06467109812 	0.000102632023671 	-3.73805247019e-22
1.07673505395 	5.64396043345e-05 	1.71458527586e-22
1.0907580769 	0.000800471045637 	-9.62311726952e-22
1.10798927832 	-0.00405038047382 	-8.93913563258e-22
1.12817953498 	-0.0109584054536 	-7.84351527943e-22
1.14568895226 	-0.0275303896913 	1.64149598537e-21
1.13635680751 	-0.078018444788 	-1.44219757004e-22
0.833241783877 	-0.102331345929 	1.31472085411e-22
0.176492421967 	-0.222259709943 	2.79097753751e-22
0.277214135071 	-0.396932903689 	-1.03521840344e-21
0.866898288233 	-0.458114068774 	4.47175614167e-21
1.14707122456 	-0.342979001312 	-3.2673718073e-21
1.12018007879 	-0.194120872872 	1.50304495012e-21
1.10287186405 	-0.109740797568 	3.52970073094e-21
1.0878368601 	-0.0621250958278 	-9.13980118042e-22
1.07561843116 	-0.0339166905115 	9.91187126422e-22
1.06772641345 	-0.0194005206126 	8.99786045005e-22
1.05928204257 	-0.0101626289938 	-1.29981310221e-21
1.05222999064 	-0.00479503212786 	2.17576487853e-22
1.04659326551 	-0.0021253950335 	4.03085438984e-23
1.04240609096 	-0.000808479925639 	4.41597999236e-22
1.03919547763 	-0.000163264959175 	1.72739211276e-22
1.0437342466 	0.00149725948647 	1.70497283049e-21
1.04824909071 	0.00302945985391 	-3.28802738336e-21
1.05443768595 	0.00411752189013 	1.8277264502e-21
1.06314797592 	0.00697399606484 	7.32180208923e-24
1.07500695118 	0.00838249765535 	2.41628115568e-21
1.09014234127 	0.00986751206001 	-5.92958984015e-22
1.11127357007 	0.0126618647204 	-1.8334884487e-21
1.13781764076 	0.00817877309359 	1.06069290881e-22
1.18397765915 	-0.00260427339323 	9.36881600364e-22
1.20844670587 	-0.0566986985441 	3.57451138969e-22
0.97526615929 	-0.141898212863 	-3.64465596189e-21
0.364804878927 	-0.448547469447 	1.00944359644e-22
0.350131988229 	-0.549355758876 	-3.46561554469e-22
0.780863371432 	-0.455974380684 	5.78716545086e-23
0.981196589356 	-0.313278706919 	-3.98870573864e-21
1.00967699114 	-0.177917021299 	5.61874081108e-22
1.04034354881 	-0.100962329133 	7.28257721553e-22
1.0526586696 	-0.0563332051286 	9.30497990816e-23
1.05673151565 	-0.0316177119377 	-1.67231141804e-21
1.05500795907 	-0.0173217202943 	-5.18405108604e-22
1.05236921491 	-0.0100474982541 	1.34165888109e-21
1.04879753761 	-0.00547980063368 	-1.19099945993e-24
1.04464421013 	-0.00289525372012 	-1.10218549658e-21
1.04135654033 	-0.0015975090988 	1.67702579133e-21
1.03871737724 	-0.000714796463691 	-2.94342333218e-23
1.04234401547 	0.00309534832446 	-1.29382221921e-21
1.04661532141 	0.00591436620526 	6.4600293664e-23
1.05131715794 	0.00861414660656 	3.72728802685e-21
1.05939112197 	0.0112499822596 	-1.770386962e-21
1.07076278075 	0.0163959243051 	2.57962509735e-21
1.08486391798 	0.0229893759876 	-2.8102638753e-21
1.10838616232 	0.0317898756779 	3.17063660937e-22
1.13584106722 	0.0410417609465 	-8.75684310119e-24
1.20292917527 	0.0520762360989 	2.79376358643e-21
1.25706231698 	0.0528348933791 	-3.45431374599e-21
1.11794805452 	0.0187161098997 	4.44251089738e-21
0.645122921127 	-0.230702034719 	3.7049718644e-21
0.391836111156 	-0.424332596311 	-2.11843660716e-22
0.5839834545 	-0.377384783101 	-1.19164494696e-22
0.836536167355 	-0.189621414684 	-1.11587552385e-22
0.92736022663 	-0.102877556094 	-7.93286040423e-23
0.988315572277 	-0.0607041276978 	3.33712404546e-23
1.02725280727 	-0.0320933659604 	8.74456947695e-24
1.04125364006 	-0.0186524436488 	2.25584505916e-22
1.04754500563 	-0.0108599884192 	-1.5297753926e-21
1.04734928476 	-0.00641755033348 	1.28247436666e-21
1.04543321118 	-0.00404357516137 	-2.49292615415e-22
1.04299438685 	-0.00296013651721 	-1.86842458585e-21
1.04042926817 	-0.00170001817177 	7.47270378574e-24
1.03812399608 	-0.000975838186294 	3.35903063374e-22
1.03994065116 	0.00441469307652 	1.09115053654e-21
1.04373382381 	0.00727961704146 	-6.05300877098e-22
1.04758041631 	0.0104200547065 	-4.08009203612e-22
1.0539656587 	0.0156954303313 	3.36714353287e-22
1.06328359362 	0.0229770197162 	2.12335934239e-22
1.07525178831 	0.034279773193 	1.10833432811e-21
1.09362254718 	0.0490040968475 	1.54537762921e-22
1.11400888087 	0.0725244124701 	-1.3642624635e-22
1.16686766255 	0.10794232811 	-1.81771024036e-22
1.22300712548 	0.174798113051 	2.28088176726e-22
1.15982964783 	0.229086812695 	-2.36481252824e-21
0.889584080814 	0.186376066331 	-2.29238109392e-21
0.563392242779 	-0.0103650452377 	-6.22102755501e-22
0.505720945131 	-0.138582050834 	-3.30678876011e-22
0.697940798344 	-0.0711316556484 	-3.15188922793e-22
0.890655304719 	0.0065477880968 	-1.76963616235e-22
0.97232188606 	0.00544663694805 	8.27510531251e-25
1.01936370434 	0.00242520728135 	1.34820166269e-22
1.03856374448 	0.000992951526726 	8.42620635967e-23
1.04549429945 	-0.00160043714227 	2.35079516418e-22
1.0467867975 	-0.00223102936807 	1.88841250114e-22
1.04490665795 	-0.00212169444084 	1.03467062025e-22
1.04185715116 	-0.00186983999484 	-1.61915479725e-22
1.03972564583 	-0.0017557624055 	-4.90657068764e-22
1.03738258949 	-0.00139104102443 	-2.95600242484e-22
1.0371305946 	0.00508550772159 	-3.00514158028e-21
1.03951898627 	0.0078459397922 	9.86956566734e-22
1.04318355306 	0.0118905180846 	-5.23890348996e-24
1.04798713491 	0.0177291017681 	7.69648516798e-23
1.05331131117 	0.0262751991533 	-5.7121538543e-22
1.06047385952 	0.0397049205015 	-3.62453748967e-22
1.06963109621 	0.0602098660056 	1.24079720904e-21
1.07915087591 	0.0912992665174 	3.17837381101e-23
1.09652995129 	0.140340103933 	6.42312230413e-23
1.13127831649 	0.230157535606 	-1.92320818275e-22
1.09202075254 	0.322958881647 	-1.46421128078e-21
0.923837738248 	0.358097006138 	1.4211921722e-23
0.700139621354 	0.30413103288 	-4.60640276821e-22
0.593252014354 	0.214087084249 	-2.61272732718e-22
0.658808658932 	0.156416015747 	4.53480121962e-23
0.880893851172 	0.126556755591 	-1.1970981317e-23
1.01146999915 	0.0900736247582 	-1.8453837465e-23
1.04312631403 	0.0374750030438 	1.11057022578e-23
1.05115305034 	0.0170800044961 	-3.63038264432e-22
1.05190490538 	0.00653018832149 	2.77686914814e-22
1.04890177966 	0.000772642213733 	4.75548446045e-23
1.04578257921 	-0.00102051772042 	2.32017905568e-23
1.04240354734 	-0.00179676582012 	1.6502962331e-23
1.03883005273 	-0.00163841360064 	2.83047240679e-22
1.03674580372 	-0.00164084081722 	1.01843281857e-22
1.03434015021 	0.0043905971964 	-6.42267716207e-22
1.03599896618 	0.00740147681461 	-6.79662109227e-22
1.03786675108 	0.011393616377 	2.05967276084e-22
1.04009017888 	0.017209397505 	-8.64825126893e-24
1.04183754811 	0.0250509217689 	1.87022124681e-22
1.0429341675 	0.0376030331498 	4.46800422301e-22
1.04378739382 	0.0571330059703 	3.38813731599e-23
1.03997438898 	0.0861595654624 	-4.50366497004e-22
1.032688663 	0.133847490931 	3.67782715625e-22
1.02603789251 	0.214966927065 	2.48532693626e-22
0.997564124395 	0.318981557962 	-4.17490974264e-22
0.887907045529 	0.40161323838 	0
0.735487483399 	0.430863095175 	-1.89220499067e-36
0.672471161264 	0.404402869565 	-2.99977430598e-25
0.75823196204 	0.330032665457 	3.47514259261e-22
0.946870490512 	0.216979770845 	-3.05787426526e-22
1.07556392144 	0.119206431828 	-2.97389274339e-22
1.08892537159 	0.0576167167802 	4.73535710662e-22
1.07305063424 	0.0234727028092 	-2.95414085654e-23
1.06234303381 	0.0101162950806 	-2.03861580172e-22
1.05498867612 	0.00235420580636 	3.13986678895e-23
1.0484276549 	-0.000619674639369 	5.20656545679e-23
1.04339343784 	-0.00184439944963 	5.79661288598e-23
1.03913942799 	-0.00195136136723 	-1.30372396724e-22
1.03611218146 	-0.00113269933978 	-1.16813271836e-22
1.03229275633 	0.00385937324101 	0
1.03322889966 	0.00630115734886 	0
1.03396643934 	0.0093769265622 	0
1.03448905825 	0.0138909293754 	0
1.03333325918 	0.0203578303582 	0
1.02965692248 	0.0303847713021 	0
1.02333211728 	0.0467965021828 	0
1.00735028993 	0.0729006939764 	0
0.97832620243 	0.114243092276 	0
0.941855375969 	0.179347316833 	0
0.897431268472 	0.276869599216 	0
0.810515459833 	0.375389159848 	0
0.716815499528 	0.417752679341 	0
0.712586858067 	0.390537203882 	0
0.851843726775 	0.293357038395 	0
1.06154483432 	0.162510547774 	0
1.15850528886 	0.0738294338853 	0
1.13328838076 	0.0314274593035 	0
1.09504923406 	0.0118856387001 	0
1.07271348353 	0.00322176428192 	0
1.05939587117 	-0.00219956196491 	0
1.04980388527 	-0.00286513326709 	0
1.04332803451 	-0.00336701702492 	0
1.03864557031 	-0.0028319672905 	0
1.03542214841 	-0.0018418886366 	0
1.03059679878 	0.00280200791292 	0
1.03119830993 	0.00431735648518 	0
1.03133660659 	0.00594161054775 	0
1.03052091773 	0.00810197065587 	0
1.02717818209 	0.0113641680011 	0
1.0196098622 	0.0158901489624 	0
1.00507567398 	0.0239464941038 	0
0.977263861893 	0.0391571646758 	0
0.931662181724 	0.0633499154096 	0
0.866846590531 	0.102853407949 	0
0.799992349021 	0.172802870149 	0
0.741580532563 	0.242216461357 	0
0.723652404341 	0.259355462067 	0
0.800394184978 	0.203316765081 	0
0.980656258229 	0.0904330791471 	0
1.15934317888 	1.68228605572e-06 	0
1.19945727348 	-0.0238691701943 	0
1.14544938212 	-0.019866506108 	0
1.09952807785 	-0.0137123333711 	0
1.07517414634 	-0.0113553021971 	0
1.05975784451 	-0.0101292336368 	0
1.04897959294 	-0.00721617900516 	0
1.04244073289 	-0.00598598279964 	0
1.03747125845 	-0.00422039333393 	0
1.03430112153 	-0.00275045488584 	0
1.02946604653 	0.00155455078201 	0
1.03012432727 	0.00207337283797 	0
1.03031475369 	0.00212863206542 	0
1.02934586519 	0.00148984622516 	0
1.02565839164 	-0.000223034588451 	0
1.01740511845 	-0.00413585568784 	0
0.999778619033 	-0.0105801134283 	0
0.967487484572 	-0.0197870423976 	0
0.912688541391 	-0.0274369150669 	0
0.829882936489 	-0.0255117764789 	0
0.758757695308 	-0.00508267373424 	0
0.72924395366 	0.00591019924377 	0
0.767743955706 	-0.013376031764 	0
0.899360081847 	-0.0693426121438 	0
1.06584557035 	-0.134162055168 	0
1.17419090957 	-0.138530206142 	0
1.17594491461 	-0.0958462501267 	0
1.12431107277 	-0.0591338897493 	0
1.08774101256 	-0.037268297103 	0
1.06904852422 	-0.0252019121121 	0
1.05554318195 	-0.0176429050709 	0
1.04586831264 	-0.0119428920949 	0
1.04020207985 	-0.00855571510755 	0
1.03555725964 	-0.00561343412972 	0
1.03275013428 	-0.00353241671452 	0
1.02915504349 	0.000486158054177 	0
1.030284743 	0.000175577537873 	0
1.03139190179 	-0.00116798503025 	0
1.03221038781 	-0.0042349453819 	0
1.03152877495 	-0.010421972065 	0
1.02847554741 	-0.0221959233166 	0
1.01881186227 	-0.0426775090291 	0
0.992803390613 	-0.0785537262302 	0
0.934417758494 	-0.121154377367 	0
0.841165555603 	-0.156003936589 	0
0.769499845977 	-0.177701265186 	0
0.753115206452 	-0.204248329672 	0
0.804814504658 	-0.235123677469 	0
0.931437294097 	-0.255084194581 	0
1.05619550254 	-0.248173037834 	0
1.11854380216 	-0.194759397507 	0
1.1176476231 	-0.1253158382 	0
1.088482402 	-0.0775735518488 	0
1.06795814158 	-0.0506577000672 	0
1.05679774537 	-0.0336056356712 	0
1.04760622628 	-0.0223881670055 	0
1.04069281803 	-0.0150662514252 	0
1.03643534172 	-0.0101712027318 	0
1.03282150982 	-0.00652760137331 	0
1.03064640541 	-0.00401714937017 	0
1.02949343144 	-1.41387501666e-05 	0
1.03157652135 	-0.000706675232926 	0
1.03444933052 	-0.00268994089185 	0
1.03841775618 	-0.00675288828198 	0
1.04331298514 	-0.0142058995871 	0
1.04977432135 	-0.0285458943568 	0
1.05682946942 	-0.0529962381381 	0
1.0464557505 	-0.0997750700162 	0
0.98923067083 	-0.165738273122 	0
0.885721515494 	-0.227274811483 	0
0.806150894828 	-0.272425017978 	0
0.785824548069 	-0.307733790055 	0
0.819781376895 	-0.332780078572 	0
0.911990028267 	-0.330583355038 	0
0.997916536913 	-0.282365299237 	0
1.04052281603 	-0.205444967043 	0
1.05304313462 	-0.134571272694 	0
1.04844277021 	-0.0848986988488 	0
1.04393489461 	-0.0553312930655 	0
1.04066449594 	-0.0357888127642 	0
1.0370377098 	-0.0231563327338 	0
1.0338920536 	-0.0153072823453 	0
1.03160115765 	-0.0100922946639 	0
1.02949698549 	-0.00648358992655 	0
1.02813093656 	-0.00396804977415 	0
1.02994356822 	8.95378752553e-05 	0
1.03305870415 	-0.000368527293604 	0
1.03773498131 	-0.00179047227277 	0
1.04440682237 	-0.0048467041347 	0
1.05435106163 	-0.00979880490435 	0
1.06923971139 	-0.0200355897813 	0
1.09223921733 	-0.0362678648969 	0
1.10690120586 	-0.0687462723339 	0
1.0642728406 	-0.133723352402 	0
0.948836271319 	-0.216148745663 	0
0.847398855512 	-0.283674737893 	0
0.812245849314 	-0.324100781989 	0
0.824282963898 	-0.34336916705 	0
0.874316757509 	-0.327690816848 	0
0.923727915614 	-0.26418985438 	0
0.962756377431 	-0.187299405783 	0
0.993242727989 	-0.124813833693 	0
1.00779600071 	-0.0794144849499 	0
1.01754728591 	-0.0500608453716 	0
1.02339542525 	-0.0307591785944 	0
1.02606797774 	-0.0191328295142 	0
1.02706351184 	-0.0121841158577 	0
1.02702508457 	-0.00788449692522 	0
1.02642284851 	-0.00507000638891 	0
1.02582007733 	-0.00310399184234 	0
1.03005721259 	0.000651292402711 	0
1.03363009608 	0.000827392542268 	0
1.0391454531 	0.000913334216911 	0
1.04683288414 	0.000322194056505 	0
1.05908604918 	-0.000180396194972 	0
1.0774287262 	-0.00258238711618 	0
1.10676722052 	-0.00487435103999 	0
1.14331710764 	-0.00936933095269 	0
1.1358932135 	-0.037609672259 	0
1.0380552467 	-0.104350645347 	0
0.915177044207 	-0.189604660663 	0
0.843498310212 	-0.247301041652 	0
0.820623734136 	-0.264764155316 	0
0.829120491352 	-0.238225990617 	0
0.853812265942 	-0.180187709139 	0
0.897644597571 	-0.123917247954 	0
0.944372275253 	-0.078156713833 	0
0.973915377165 	-0.0472164650394 	0
0.994959739102 	-0.0280512986394 	0
1.0095650559 	-0.0160661748852 	0
1.01805928183 	-0.00976674328497 	0
1.02241681495 	-0.00612429597134 	0
1.02413572612 	-0.00401331770418 	0
1.02451534441 	-0.00260026668333 	0
1.02435683561 	-0.00161449838961 	0
1.02944086073 	0.00163749789492 	0
1.0327752827 	0.00264044107894 	0
1.03810180402 	0.00434969500779 	0
1.0453595862 	0.00637893673354 	0
1.05717355259 	0.0100081282137 	0
1.07412800689 	0.0149931382108 	0
1.09980578897 	0.0243539983913 	0
1.13908144354 	0.0419322036302 	0
1.15887644561 	0.0596893619818 	0
1.10596766876 	0.0492753416466 	0
0.996168754875 	-0.00232645727821 	0
0.891308048539 	-0.051310127535 	0
0.822608305498 	-0.0679337947038 	0
0.797674875017 	-0.0575235858087 	0
0.81176563496 	-0.0351188048264 	0
0.859214251643 	-0.0136092937021 	0
0.916703422339 	0.0052305720562 	0
0.958446644686 	0.0121594096549 	0
0.98675119974 	0.0102586466505 	0
1.0057703945 	0.00677793526894 	0
1.01654406444 	0.00352455408187 	0
1.02170162959 	0.00160425790585 	0
1.02366883866 	0.000487448593701 	0
1.02414258457 	3.55476281125e-05 	0
1.02397305481 	-0.000113042102414 	0
1.02807737021 	0.00263917514849 	0
1.03082736824 	0.0044079794048 	0
1.03531560683 	0.00727293729385 	0
1.04123951492 	0.0112766987069 	0
1.05070390977 	0.0178525421933 	0
1.06354262777 	0.0280271490164 	0
1.08071257072 	0.0443576441412 	0
1.10743518307 	0.0728073616126 	0
1.12881475481 	0.114892017145 	0
1.10334282859 	0.150263597887 	0
1.0222052843 	0.159527859908 	0
0.918430564345 	0.152886915183 	0
0.834488622286 	0.143071013175 	0
0.800323339632 	0.129035753595 	0
0.810101175417 	0.114242232791 	0
0.854750098129 	0.104285837582 	0
0.917811050044 	0.094270883592 	0
0.9689585295 	0.074730633889 	0
1.0001796633 	0.0489979847819 	0
1.01651615178 	0.0286478589245 	0
1.02337624516 	0.0160072678584 	0
1.02564768916 	0.00869591406813 	0
1.02580768448 	0.00448752325905 	0
1.02526374877 	0.00219158396351 	0
1.0245242914 	0.0010230727218 	0
1.02631926034 	0.00302020458688 	0
1.02830385337 	0.00512776546445 	0
1.03140010432 	0.008521918492 	0
1.03516530074 	0.0136401476653 	0
1.04085128839 	0.0220189586949 	0
1.04806523767 	0.0354730233949 	0
1.05552793166 	0.0562975252668 	0
1.0662249591 	0.0889313919535 	0
1.0774643073 	0.137397832917 	0
1.0574873996 	0.192460886648 	0
0.993455715118 	0.236766138179 	0
0.91034695831 	0.259891412705 	0
0.845827893427 	0.258528120781 	0
0.823623634832 	0.23964766391 	0
0.834171583863 	0.212809531977 	0
0.878025118923 	0.184006114254 	0
0.945984981732 	0.151836056693 	0
1.003639918 	0.10973269382 	0
1.03264841851 	0.0674254922212 	0
1.0387841068 	0.0386183759748 	0
1.03641968467 	0.0219423828127 	0
1.03308252185 	0.012365369015 	0
1.02997581946 	0.00673475170974 	0
1.02753511168 	0.00349121731098 	0
1.02572005623 	0.00173912955108 	0
1.02444988422 	0.00254062471088 	0
1.02549777813 	0.00442800038528 	0
1.02683790435 	0.00758507819792 	0
1.02784593086 	0.012578003144 	0
1.02876166543 	0.0210584301345 	0
1.02909312491 	0.0351505040802 	0
1.02699369679 	0.0575783118537 	0
1.02444015189 	0.0894398612444 	0
1.0224055349 	0.135190031048 	0
0.997282620601 	0.194145446398 	0
0.947088400358 	0.250732948646 	0
0.89207822877 	0.286382394721 	0
0.853606455387 	0.290651116602 	0
0.847152054547 	0.275014800489 	0
0.864964062571 	0.247324189234 	0
0.915426911971 	0.207977496075 	0
0.99236318549 	0.15822381082 	0
1.05335880393 	0.100902454678 	0
1.07190423752 	0.0571361962864 	0
1.06260489447 	0.033080723461 	0
1.05009567577 	0.0191124393415 	0
1.04102313443 	0.0112080723389 	0
1.03465609558 	0.00634621779462 	0
1.03022609666 	0.00348485062596 	0
1.02723635811 	0.00182261798513 	0
1.02294545534 	0.00138340248444 	0
1.02316887443 	0.0024767876038 	0
1.02298449999 	0.00444206120667 	0
1.02146371728 	0.00758578499855 	0
1.01784931012 	0.013267752222 	0
1.01117818377 	0.0232256717275 	0
1.00069402885 	0.0406498469721 	0
0.988048539966 	0.0648974933524 	0
0.971909883638 	0.101323466711 	0
0.936677731572 	0.1521271008 	0
0.89605275841 	0.206003021141 	0
0.867898800254 	0.249214270358 	0
0.854804536729 	0.2631821904 	0
0.866132433024 	0.252658925909 	0
0.900552166114 	0.221038595065 	0
0.96816280477 	0.166243352219 	0
1.05429649053 	0.103695369684 	0
1.10390700426 	0.05249861125 	0
1.10062728363 	0.0270604801514 	0
1.07776219443 	0.0165849981839 	0
1.05898550695 	0.00974347078945 	0
1.04633714653 	0.00602656415813 	0
1.0379835669 	0.00348907181888 	0
1.03225856893 	0.00203785588326 	0
1.02852442702 	0.00111461057035 	0
1.02241485016 	-3.75743733863e-05 	0
1.02235882444 	-0.000156146489248 	0
1.02159703333 	-0.000212409581209 	0
1.01899223309 	-0.000433630535995 	0
1.01303827664 	-0.000430790777471 	0
1.00173799998 	0.000317582924536 	0
0.98509682426 	0.00457093925501 	0
0.964261440963 	0.0137256371446 	0
0.935191922183 	0.0335041219425 	0
0.891051558875 	0.0641458487068 	0
0.852578892331 	0.0955333745009 	0
0.839044487196 	0.124826433641 	0
0.850777880408 	0.140077231858 	0
0.890310393507 	0.135380271982 	0
0.952866469127 	0.104078700906 	0
1.03317756304 	0.0508372262413 	0
1.10667609381 	0.0077139843759 	0
1.12971373454 	-0.00875784201432 	0
1.10773616919 	-0.00669678906464 	0