1.0140557642 	-0.00823356491349 	-2.00153146337e-21
1.01511250583 	-0.012833705143 	-1.52018658814e-21
1.01632230169 	-0.0179323365843 	5.56432309277e-22
1.01763794161 	-0.0239190757854 	-1.51359502949e-24
1.01869819871 	-0.030837124295 	-6.15608673722e-22
1.01899184574 	-0.0390311962567 	-3.02535445027e-22
1.01747072997 	-0.0481789913628 	-3.43337070671e-22
1.01224365494 	-0.0569112731815 	-1.6781045384e-21
1.00183673678 	-0.0670521836906 	2.35402879069e-20
0.982124132325 	-0.0710289575196 	1.71459064011e-21
0.954674739941 	-0.0634132947738 	4.20462519243e-23
0.92723311093 	-0.036321805888 	2.06157992643e-21
0.916420918071 	0.00825347657225 	-3.81884985522e-24
0.932750597022 	0.0511891858713 	2.40075295608e-22
0.963637539144 	0.0742648385432 	-1.47283494299e-21
0.99192129948 	0.0775469377366 	1.69807596703e-21
1.01064054914 	0.0699719038352 	1.62688951773e-20
1.0193498319 	0.0574201052355 	-1.24949273099e-21
1.02269186555 	0.0473859638707 	-1.19891251349e-21
1.02263165847 	0.0376481612821 	2.49387142934e-22
1.02108981028 	0.029371112965 	5.24403709307e-22
1.0190626047 	0.0225396125151 	4.07397087841e-24
1.01704289881 	0.0168135498977 	-2.84117074572e-22
1.01537758491 	0.0119607853187 	6.18681347897e-22
1.0140277661 	0.00761382477897 	6.23093132363e-22
1.01865907272 	-0.00887445873143 	7.07016817038e-22
1.02023916216 	-0.0138420341683 	1.40853936897e-21
1.02227128145 	-0.019675111384 	9.07816371726e-22
1.02462115459 	-0.0265539117909 	-1.83007804088e-22
1.0270259285 	-0.0348431299654 	9.10334945816e-22
1.02879247144 	-0.0450839233871 	-3.98585848132e-22
1.02883959408 	-0.0575543075671 	7.12174807613e-22
1.02527217865 	-0.0729577606807 	2.27317885254e-22
1.01368118318 	-0.0908062282296 	-7.10028271418e-22
0.988476872272 	-0.107193420392 	-3.00430699606e-21
0.941292551414 	-0.112171044498 	-4.12900285905e-21
0.876984603168 	-0.0779545912546 	1.03954394683e-20
0.844861346249 	0.0111336195364 	1.68157076973e-22
0.887441997365 	0.0961707359034 	9.45149452013e-21
0.956326483797 	0.122387473564 	-7.7261549094e-21
1.00323406164 	0.110453151029 	-1.80277102707e-21
1.02589592636 	0.0896395588043 	-3.90854855612e-22
1.03386815008 	0.0694210343606 	-2.28181117351e-22
1.03472409622 	0.0534261360876 	-4.09033042791e-22
1.03247014976 	0.0411476398156 	2.17951201893e-22
1.02907071263 	0.0314943661469 	-5.41490468299e-22
1.02559478366 	0.0239026771945 	9.08937840032e-23
1.02255056489 	0.0177245849168 	-2.72612604334e-22
1.02008807967 	0.0124813474443 	-5.09402154146e-22
1.01826386625 	0.00797972370132 	-9.99671494292e-23
1.02347179671 	-0.00909849123191 	1.42994828197e-23
1.02577376201 	-0.0141304531588 	6.61032315043e-22
1.02881045299 	-0.0203687028578 	-6.19253681869e-22
1.03253289754 	-0.0277891680709 	-3.42649827796e-24
1.03687316827 	-0.0370242461571 	2.77472591816e-22
1.04126842332 	-0.0489417198374 	2.68233725269e-22
1.04472020583 	-0.0644830659676 	-5.71302204599e-22
1.04526617898 	-0.0852749850455 	-1.44010225174e-21
1.03899031777 	-0.113371240523 	-1.42164015372e-22
1.01655222262 	-0.152132427576 	1.14924605471e-21
0.952260537474 	-0.196564741125 	1.6235073438e-20
0.79881976686 	-0.194618530688 	-2.09219110234e-21
0.66764744551 	0.0192663188126 	-2.66208157472e-21
0.821821739446 	0.220193397056 	-3.61001245504e-21
0.978131347183 	0.204585257848 	9.67174144403e-21
1.03762085693 	0.149261127446 	-4.6084665811e-22
1.05407458936 	0.105605580676 	5.66316475094e-24
1.05485332326 	0.0761796881416 	1.5917603536e-22
1.05011802187 	0.0560031890893 	-3.01082990897e-23
1.0439085949 	0.0419867272094 	3.22905917909e-23
1.03780266696 	0.0317169582511 	-7.4978169809e-23
1.03251660009 	0.0239177430033 	-6.34977472658e-25
1.02826392146 	0.0176669593951 	9.64877359577e-23
1.02494807908 	0.0123678376972 	-1.52322336416e-22
1.02255022352 	0.00798622574865 	-1.84654484653e-22
1.02834440393 	-0.00874874858061 	6.15301111029e-23
1.03139233029 	-0.0136871497535 	-2.20604389366e-23
1.03553544478 	-0.019757154756 	1.06323130358e-22
1.04093712051 	-0.0271797311833 	-8.80322175831e-23
1.04759089558 	-0.0365696777148 	-1.23196507169e-22
1.05536341308 	-0.0491797564786 	-9.30614999369e-23
1.06378983695 	-0.0662993297924 	9.60316923786e-23
1.07198893135 	-0.0902935294928 	-2.49064020317e-22
1.07821638206 	-0.125681075605 	4.72716583892e-23
1.07782757847 	-0.183568650147 	-4.34021748908e-22
1.05346503469 	-0.297114372855 	8.47454442778e-23
0.837995758818 	-0.568617411087 	-2.40827997082e-21
0.897573481531 	0.598082676627 	2.97541270916e-22
1.0965749537 	0.295350461647 	-1.81318274549e-21
1.10678661337 	0.169558596943 	-1.97784488306e-21
1.09516638789 	0.10801460977 	-5.99974245373e-22
1.08048416925 	0.0739671996712 	8.59492132523e-22
1.06697614864 	0.0530616592771 	4.19654450324e-22
1.05562967217 	0.0393566895331 	-6.29370247339e-23
1.04647721847 	0.0296431777323 	-1.09483538372e-22
1.03929943984 	0.022438486867 	-7.71306078286e-23
1.03379000545 	0.0166250739687 	-2.30804722656e-23
1.02968313178 	0.0117142154585 	-2.88525544393e-23
1.02675204384 	0.00757512333234 	3.15348176763e-24
1.03295416714 	-0.00771884484123 	-3.5568639573e-23
1.03669762315 	-0.0123612114025 	3.65982551574e-23
1.04193423273 	-0.0177213414499 	2.81423293204e-23
1.04906279215 	-0.0244713782921 	-1.16665778933e-26
1.05815917317 	-0.0331470598542 	-1.95950341993e-23
1.06965695506 	-0.04494541863 	-2.11932232221e-24
1.08371370194 	-0.0612618860475 	-4.11659523726e-24
1.10062772408 	-0.0843140729502 	2.0682116409e-23
1.12187309584 	-0.117984457525 	-3.8486267433e-22
1.15344167191 	-0.169842759958 	-1.8835892513e-22
1.22534622645 	-0.259061378758 	1.91739433435e-22
0.0431558472249 	0.00151259146831 	-2.07082953397e-21
1.28563819367 	0.235538133603 	-2.63262023171e-22
1.18797615883 	0.137127291859 	3.73562277734e-22
1.13703995463 	0.0868044680617 	1.06783527504e-21
1.10447055983 	0.0597416861928 	-3.23183684274e-22
1.08203907644 	0.0436647287642 	-3.87242962467e-24
1.06593898525 	0.0331391097891 	8.151394966e-24
1.05407521912 	0.0255163326723 	9.77609605339e-23
1.0453239662 	0.019610636262 	-3.05211625711e-25
1.03875357089 	0.0147304936005 	5.82878255382e-23
1.03402116697 	0.0105665509332 	5.47680458999e-23
1.03067883886 	0.00670955660468 	-2.03259005475e-23
1.03674877077 	-0.00647540135467 	9.89993657399e-25
1.04114115242 	-0.00996447062816 	-2.44818029343e-23
1.0474192084 	-0.0143367027505 	-2.95021169645e-23
1.05602571682 	-0.0196670921377 	7.90615568339e-24
1.06731276161 	-0.0265807750408 	8.13719376748e-23
1.08223747912 	-0.036080797578 	1.64896733316e-22
1.1012587627 	-0.0492903791414 	-9.57336859417e-22
1.12552916578 	-0.0678323000232 	3.9316807737e-22
1.15667893305 	-0.0930119878374 	1.34266964257e-21
1.20002995197 	-0.122870981245 	-8.37867666221e-21
1.25653136061 	-0.135684348816 	2.4056906346e-20
0.0993425241418 	0.00497786520906 	1.42344939697e-21
-0.000559721871196 	0.0173442931727 	-4.48577992595e-22
0.165050560727 	0.0455115986273 	5.77894791356e-24
1.34413979604 	0.0832629415214 	-3.73236291637e-20
1.23295736302 	0.0605659657683 	1.17992659953e-20
1.16150529478 	0.0449450756574 	1.10741226308e-21
1.11885093123 	0.0357951803771 	3.62328750221e-22
1.09138133599 	0.029448289072 	1.57715802978e-21
1.07286581168 	0.0243700465796 	-2.66300012533e-22
1.05956875889 	0.0199249594662 	-2.3220898388e-22
1.04999998249 	0.0158763951633 	-1.04714367586e-23
1.04282353143 	0.0122704519875 	-3.91119979359e-23
1.03760866043 	0.00888341685937 	-7.9268980446e-23
1.03397157884 	0.00588788461507 	-1.53693831294e-22
1.03975637672 	-0.00461497814823 	-1.19208998009e-23
1.04444890969 	-0.00688795249342 	-1.58901056109e-22
1.0514535059 	-0.00988627752125 	2.23422432426e-22
1.06108218496 	-0.0132313303534 	-2.02446492245e-24
1.07401835045 	-0.0175880500544 	-2.91760434633e-22
1.09135661855 	-0.0234845628652 	-3.05980690577e-22
1.11419266797 	-0.0318152428792 	9.13052661928e-22
1.14351335299 	-0.0439325006078 	3.29191292819e-21
1.17976101977 	-0.0608299541433 	7.71081185364e-22
1.22042437054 	-0.0813875563831 	2.83485486637e-21
1.18953848204 	-0.0678930585252 	2.13854787423e-21
0.0868457945839 	0.0469438441468 	-3.28479816873e-21
-0.164027522467 	0.127616866689 	-3.56784556043e-21
0.487951921762 	0.0302616443451 	-8.59148001626e-21
1.32730607188 	-0.0656937673378 	-3.16209604768e-21
1.22941068467 	-0.0258200256974 	-3.80387090647e-21
1.1587927281 	-0.00237216738626 	-1.3469117696e-22
1.11870653451 	0.00969233589602 	-4.70389305638e-21
1.0929990702 	0.0145975708445 	-1.39952614227e-21
1.07543875325 	0.0153085041625 	3.59331539261e-22
1.06267417669 	0.014065521616 	4.26201769196e-22
1.05314716005 	0.0119348304018 	4.94701309345e-24
1.04585109262 	0.00960255521412 	-5.51697660431e-22
1.04042744856 	0.00706663954264 	4.79946256128e-22
1.03675200307 	0.00476651548641 	4.19066616386e-22
1.04170490247 	-0.00259144178627 	-1.52486519527e-22
1.04647044804 	-0.00356376886105 	-4.8128494506e-22
1.05364142115 	-0.00484168082933 	-3.14309751277e-22
1.06363016644 	-0.00588032741494 	6.76444057711e-23
1.07717721482 	-0.00703040805735 	-6.76050193059e-22
1.09597686872 	-0.00828775926022 	4.68981240371e-22
1.12070555993 	-0.0104660061676 	-1.16396112218e-21
1.15316634601 	-0.0141392121883 	-8.96850993246e-23
1.19719421064 	-0.0238766637345 	-2.43220561447e-21
1.24632174862 	-0.0439096535212 	-2.79943618647e-21
1.13334646758 	-0.0577568755535 	3.97791257212e-21
0.133759337303 	-0.145451501665 	6.04066826404e-21
-0.156688667414 	-0.258004260631 	5.67553465747e-22
0.660824109866 	-0.303896472141 	1.42823144344e-20
1.22559135202 	-0.213477611983 	-2.48479353934e-21
1.16612463966 	-0.0959773252487 	-2.56756949802e-21
1.13269668951 	-0.0390845180365 	-1.92191033141e-21
1.10508349904 	-0.00904303718869 	2.90626232018e-22
1.08789915102 	0.00359628149579 	1.77617563918e-21
1.07457720307 	0.00825680821428 	-6.36294481777e-22
1.06353481398 	0.00914659952071 	9.10604089667e-22
1.05491724423 	0.00838117280463 	-1.02863890339e-22
1.04789460419 	0.00702675561124 	6.60575687234e-22
1.04259432909 	0.0052758641941 	8.11363135118e-22
1.03894689632 	0.00355278591036 	-2.50293377902e-23
1.04236085704 	-0.000614087546218 	4.8705090794e-22
1.04705668858 	-0.000395594022799 	4.78596589663e-22
1.05379742402 	0.000190372660961 	-2.56026479437e-22
1.06339627436 	0.00154344123239 	-8.78194463019e-23
1.07645109914 	0.00382562006289 	3.21534429188e-22
1.0945019469 	0.00743799544176 	1.73467929846e-22
1.12008995154 	0.0139171888422 	-2.37566597967e-22
1.1528166932 	0.0177956580469 	7.49909420229e-22
1.20161192413 	0.0241792143296 	2.79041783613e-20
1.27704228928 	0.0170644881103 	2.21414312636e-21
1.18002511246 	-0.0127563562095 	7.95196729889e-22
0.383088700632 	-0.269139149858 	3.682933347e-21
-0.0437676557696 	-0.513272909962 	-2.88841333346e-22
0.565449181663 	-0.428929238304 	1.55154616969e-21
1.04357269258 	-0.24668941829 	-1.24181107627e-21
1.07409081157 	-0.105411419407 	1.93845094016e-21
1.08677041505 	-0.0414088879613 	1.97610374137e-20
1.08416130054 	-0.0125722521622 	4.52559941778e-22
1.08001894139 	-0.000448386367372 	2.38920342623e-21
1.07190362162 	0.00435238714986 	-2.63791803249e-22
1.06330451896 	0.00571256679713 	-7.4076826659e-22
1.05580369646 	0.00548324926565 	1.5571399096e-22
1.04915660809 	0.00469678138961 	3.18328510944e-22
1.04414027532 	0.003530618687 	-7.09385323705e-22
1.04044909485 	0.00235704477019 	-6.05273363758e-22
1.04200885542 	0.0011554976878 	-7.23702215019e-22
1.04618915959 	0.00240080010595 	-2.87493766058e-22
1.05201039383 	0.00452459041478 	-7.10010314213e-23
1.06047789666 	0.00797373238375 	-2.67550414631e-22
1.07224679436 	0.0136020327276 	2.31816924851e-22
1.08723008696 	0.0229299809454 	-8.99039431471e-22
1.10760266328 	0.0332751049574 	-9.18339367567e-22
1.13987339834 	0.0532341738211 	-1.32845887657e-21
1.18292846664 	0.0812819173179 	4.2333583383e-21
1.27627375601 	0.117988514778 	7.42996760725e-22
1.24172556719 	0.146187053405 	-8.07909264638e-21
0.727862160941 	-0.00663154916238 	-6.41599296311e-21
0.136293627624 	-0.314703231751 	-1.05036579995e-21
0.321294769164 	-0.357077910409 	2.03269226668e-23
0.873506821855 	-0.137039810987 	-2.51751257816e-22
1.00224658825 	-0.0420702695418 	1.91182548046e-22
1.05283858176 	-0.0145101098196 	1.25737403826e-21
1.07148942036 	-0.00198483692918 	-5.13021397019e-22
1.07365933923 	0.00265071300111 	8.5582362493e-22
1.07051768224 	0.00273456473868 	9.36731133952e-22
1.06344661682 	0.00356749521211 	-1.34122144602e-21
1.05636029917 	0.00310710048535 	2.89954220405e-22
1.04992162944 	0.00252309074131 	7.73107836998e-23
1.04510506371 	0.00177958274793 	7.59367887373e-22
1.04143687714 	0.00117541195996 	3.39809613338e-22
1.04074055152 	0.00236007102169 	8.80608794677e-22
1.04416618455 	0.00445472241282 	-1.92379447438e-21
1.04878192571 	0.00738371542051 	1.18803683495e-21
1.05525427352 	0.0125482177747 	6.11046013652e-24
1.06356151679 	0.0196433299235 	2.10463766463e-21
1.07400856277 	0.0303239273653 	-5.14799025511e-22
1.0886157989 	0.0490192681075 	-2.06154096702e-21
1.10994244026 	0.0784682427793 	1.13937656695e-22
1.13516361999 	0.12340672065 	1.54596082083e-21
1.19394013787 	0.202563203735 	1.51263027495e-21
1.20165497034 	0.313758435401 	-1.0209140865e-20
0.908944531161 	0.345808157765 	1.51026058306e-22
0.404808470391 	0.157146707441 	-4.58105197001e-22
0.290023329361 	-0.0403483594222 	5.85494472043e-23
0.738782798085 	0.00136146554684 	3.89433578942e-21
0.989245548721 	0.0551203846735 	-3.84233440338e-22
1.05346910559 	0.0293227717431 	1.44894512789e-23
1.07453171839 	0.0156452332025 	6.35045320204e-23
1.07647969411 	0.00722811340017 	-1.12211777523e-21
1.0710709039 	0.00399443747225 	-5.39907877421e-22
1.0638718754 	0.00177669393055 	1.41980589625e-21
1.05667237145 	2.95798925842e-05 	-1.40946692705e-24
1.05036141256 	0.000301798519712 	-1.62751574973e-21
1.04555035762 	-7.46800819376e-05 	2.76029573703e-21
1.04171286355 	5.3615855497e-05 	-8.53550041714e-23
1.03894218148 	0.00304142440848 	-6.89245829539e-22
1.041577197 	0.00571730295059 	1.93810878769e-23
1.04470834576 	0.00857418351159 	2.33773519081e-21
1.04859300443 	0.0133215050419 	-1.2591846766e-21
1.05319686905 	0.0211357181713 	1.99826661184e-21
1.05909496205 	0.0336669173127 	-2.28962142593e-21
1.06384868341 	0.0540086230439 	2.61034348425e-22
1.0698567707 	0.085822285507 	-1.59236330622e-23
1.07132933522 	0.137386862672 	2.17693686345e-21
1.07853775965 	0.22243635273 	-2.72119354903e-21
1.07044029956 	0.358156685971 	3.31919419095e-21
0.896973516916 	0.458094328072 	2.80898594286e-21
0.563188835965 	0.436601354068 	-2.82247375139e-22
0.435038886231 	0.328348119637 	1.98539187992e-23
0.690293787379 	0.209278785701 	-6.56513777425e-22
1.0304326549 	0.137340891839 	1.05676963624e-21
1.09982765661 	0.065752515608 	-7.37724933582e-22
1.09475427493 	0.0246482531973 	-3.77393048986e-26
1.08640242912 	0.00942710810722 	2.30611211261e-22
1.07545043551 	0.00127685327607 	-1.76119600113e-21
1.06545234594 	-0.000939168559196 	1.61152669037e-21
1.05670699166 	-0.00197585437815 	-2.42366445696e-22
1.04971209603 	-0.00306986669979 	-3.01465394767e-21
1.04547322027 	-0.00218352302046 	-4.86238535324e-23
1.0414648767 	-0.00121496295389 	6.21080596811e-22
1.03709004331 	0.00300394379502 	5.26059891932e-22
1.0389929001 	0.00536644946211 	-3.23526670936e-22
1.0405863494 	0.00775875745259 	-2.53343709124e-22
1.04264633297 	0.0119480525261 	1.46006061467e-22
1.04469397593 	0.0187613537445 	1.19353923126e-22
1.04444831888 	0.0293544922472 	6.930462896e-22
1.03986627724 	0.045479997935 	1.25572082522e-22
1.03230583962 	0.0736830697301 	1.98368122517e-23
1.00833816876 	0.117622411401 	-1.05594253615e-22
0.976596860447 	0.185732024428 	7.78099391332e-25
0.927600085223 	0.312374479509 	-6.69926898524e-22
0.817317759527 	0.43028544008 	-6.32290211848e-22
0.582531311733 	0.507304420971 	-4.06645528786e-22
0.538730757012 	0.477518385785 	6.38512370898e-22
0.824484830768 	0.28790099179 	7.60689761051e-22
1.14197156263 	0.110468375293 	1.28462969407e-22
1.16727583331 	0.0505169269956 	5.62743731626e-23
1.1242732245 	0.0103575027503 	-3.39090873533e-23
1.09737489689 	8.46280572899e-07 	8.62074426396e-23
1.08063719596 	-0.00695781581963 	5.25402988422e-22
1.06603013413 	-0.00634537323653 	3.17164906988e-22
1.05659198247 	-0.00623046724096 	2.39207895231e-22
1.04890949856 	-0.0044385958416 	-3.13683548894e-22
1.04451918341 	-0.00370612821774 	-9.54409717534e-22
1.04024548267 	-0.00267012254565 	-6.50033145001e-22
1.03518796597 	0.00302454215314 	-1.28548965224e-21
1.03646872663 	0.00416656197372 	4.25175318421e-22
1.03813390784 	0.00613732017018 	2.43378014055e-23
1.03912759452 	0.00880049335003 	3.79007311894e-23
1.03870420909 	0.0127214685546 	-1.50219339317e-22
1.03423079344 	0.0178347645654 	2.41176276676e-23
1.02472241212 	0.0251928485516 	1.61473005184e-22
1.00392757015 	0.0401847068838 	1.44896607996e-23
0.952934890108 	0.0627511460999 	-2.40962493698e-24
0.890439493699 	0.110854742147 	-6.58556341715e-24
0.80936250089 	0.198490741531 	2.68117729056e-22
0.670372581912 	0.341449736041 	1.98848755796e-24
0.581273101924 	0.381121473898 	-2.98029685034e-22
0.715013302449 	0.274176627982 	1.64921041509e-21
1.03809544391 	0.0718265076383 	3.95732914867e-22
1.22612755798 	-0.0104227641873 	2.5879142982e-23
1.22084128458 	-0.0211339653687 	9.55015444868e-24
1.13630563879 	-0.0313625371454 	3.91573242874e-23
1.10032665788 	-0.0192881891539 	7.95801044944e-22
1.08065421711 	-0.0187176085973 	-2.04732715839e-22
1.0642156636 	-0.0139587413912 	-3.44119017085e-22
1.05470596801 	-0.01014615042 	4.64507506223e-23
1.04707727613 	-0.0077460996606 	-1.55292432849e-24
1.04179426322 	-0.00537421636123 	7.77898969814e-22
1.03864831608 	-0.00378914272879 	1.76993041706e-22
1.03412096937 	0.00172761707794 	-2.2304352496e-22
1.03546856487 	0.00267989155897 	-2.32379961831e-22
1.03676790464 	0.00339135170029 	9.05846624586e-23
1.03702661133 	0.00391888536316 	4.51067323428e-23
1.03540908226 	0.00404412739212 	5.17021752489e-23
1.03032691947 	0.0030146139232 	-1.22220132923e-22
1.01768176406 	0.00146916537087 	-2.21953799097e-23
0.989122529413 	0.000776472632709 	4.08604670289e-22
0.934523858273 	-0.00308579661875 	-2.95944831789e-22
0.834552495224 	0.00723940899696 	-2.93849711181e-22
0.712944223256 	0.055756858277 	3.45977978414e-22
0.638685429755 	0.0732099797987 	0
0.688641705918 	0.00804387250288 	-2.60951221368e-35
0.887302628884 	-0.103898841261 	-4.13694484918e-24
1.10563061704 	-0.173365403478 	-1.01650463717e-21
1.20523360753 	-0.153165302856 	5.57180733529e-22
1.18306726035 	-0.0987731864773 	8.94080059778e-22
1.12348839671 	-0.0615240431854 	-6.92845508553e-22
1.08904559117 	-0.0416324458613 	3.42424546789e-23
1.07213211345 	-0.0285927475247 	3.88542215295e-22
1.05864911379 	-0.0207752955237 	1.36561655507e-22
1.04979037133 	-0.0142147071407 	-1.19079047579e-23
1.04411593879 	-0.0100406902158 	1.33935842736e-22
1.03937271299 	-0.00663808512483 	-4.71750149609e-22
1.03640755556 	-0.00381407990628 	-4.37260983399e-22
1.03367194636 	0.00130176301601 	0
1.03547436999 	0.00175406893112 	0
1.03743039332 	0.00146587860641 	0
1.03890100773 	5.57242638379e-05 	0
1.03921210146 	-0.00361561149667 	0
1.03734268122 	-0.0111265079067 	0
1.02889483136 	-0.0239445717968 	0
1.00669651509 	-0.0505580156166 	0
0.951618430931 	-0.0918321040625 	0
0.833722227033 	-0.130366367018 	0
0.719058865727 	-0.151777073919 	0
0.68433502179 	-0.188619232691 	0
0.759725739588 	-0.244955283901 	0
0.930545489867 	-0.286275911439 	0
1.08206852484 	-0.277306542804 	0
1.13865399129 	-0.20843426183 	0
1.12157278703 	-0.130032838574 	0
1.08826541706 	-0.0804075087799 	0
1.06960142838 	-0.053773164833 	0
1.05923690501 	-0.0359715952338 	0
1.05038264622 	-0.0244590787534 	0
1.04415021245 	-0.016840095815 	0
1.03996820784 	-0.0114696362694 	0
1.03643445097 	-0.00754048228064 	0
1.03412114948 	-0.00457591380205 	0
1.03319262035 	0.00109747734166 	0
1.03554641192 	0.0012455824385 	0
1.03859623507 	0.000491467310004 	0
1.04245459814 	-0.00189240002157 	0
1.04674598485 	-0.00725359621428 	0
1.05206240494 	-0.0188381805131 	0
1.0586772463 	-0.0382555306917 	0
1.05792909523 	-0.0802886168029 	0
1.01569771371 	-0.148861666271 	0
0.891863380471 	-0.227522076415 	0
0.768574169463 	-0.290301174421 	0
0.729269356991 	-0.335725589138 	0
0.781689930082 	-0.366701011487 	0
0.912326836394 	-0.361114526933 	0
1.01691326108 	-0.302088742584 	0
1.05061369812 	-0.212127544641 	0
1.05413192973 	-0.134185323529 	0
1.05070458243 	-0.0848100389764 	0
1.04749120502 	-0.0567087632919 	0
1.04399187761 	-0.037361972516 	0
1.04061481797 	-0.0247564143399 	0
1.03766114495 	-0.0169147843155 	0
1.03519289349 	-0.0112873893876 	0
1.03306399482 	-0.00739711644625 	0
1.03158683973 	-0.00456707617743 	0
1.03289783654 	0.00122675118656 	0
1.03578256878 	0.00138615257428 	0
1.04006098355 	0.000941321518732 	0
1.04612822747 	-0.000971201063028 	0
1.05493078243 	-0.00446715469197 	0
1.06768582141 	-0.0135662373127 	0
1.08985641305 	-0.0280668763571 	0
1.11701239582 	-0.0574932396759 	0
1.10171323429 	-0.118707507654 	0
0.976415412001 	-0.214986496952 	0
0.824815136139 	-0.307313791954 	0
0.760635627177 	-0.36229759792 	0
0.780526755874 	-0.384887273767 	0
0.859523984684 	-0.360726316429 	0
0.927673867027 	-0.28046008135 	0
0.963692552441 	-0.189681209038 	0
0.992768457631 	-0.123339759333 	0
1.01244719568 	-0.0781595538952 	0
1.02375712407 	-0.0501105175393 	0
1.02855982549 	-0.0320929546312 	0
1.03085351 	-0.0209711420988 	0
1.03138373874 	-0.0140435242879 	0
1.03080012348 	-0.00938185841184 	0
1.02996929724 	-0.00624558770643 	0
1.02918147047 	-0.00390176785029 	0
1.03256960164 	0.00174447488648 	0
1.03581817629 	0.0023636462452 	0
1.04094654418 	0.00307776319133 	0
1.04796914244 	0.00304134795882 	0
1.05945204669 	0.00350807923925 	0
1.07610001411 	0.00166792762058 	0
1.10385670859 	-0.00028103576316 	0
1.14864788826 	-0.00247753191567 	0
1.17171203448 	-0.0203404926517 	0
1.0825417216 	-0.0825502256273 	0
0.917637512216 	-0.184295754682 	0
0.806408017842 	-0.266306949326 	0
0.776938724461 	-0.296647809257 	0
0.800158313226 	-0.267966091266 	0
0.840031858667 	-0.196585037586 	0
0.88983952423 	-0.128600461131 	0
0.941364964026 	-0.0816010208033 	0
0.977048198444 	-0.0500670088213 	0
1.00062592831 	-0.0301935101812 	0
1.01456028153 	-0.0186891743812 	0
1.02229026244 	-0.0123842206611 	0
1.02607267915 	-0.00839300568328 	0
1.02731702769 	-0.00589257748715 	0
1.0275020148 	-0.00411263916482 	0
1.027186399 	-0.00263980972322 	0
1.03159177107 	0.00259987515098 	0
1.03475203345 	0.00404893686503 	0
1.03985437119 	0.00624445009744 	0
1.04642267393 	0.00861119067854 	0
1.05754997414 	0.0128125649046 	0
1.0732406139 	0.0181699004115 	0
1.09673479752 	0.0276193705598 	0
1.13901330118 	0.0459959574108 	0
1.18190476581 	0.0722292985672 	0
1.14703737293 	0.0797714438475 	0
1.01871248176 	0.0311227695903 	0
0.879954403162 	-0.0395719013075 	0
0.790751227855 	-0.0746590239904 	0
0.76650832887 	-0.0699959928422 	0
0.789363504682 	-0.0427477139046 	0
0.846425511488 	-0.0151968735027 	0
0.913215621278 	0.00124515006051 	0
0.96016596233 	0.00607863158469 	0
0.990643720852 	0.00455066754823 	0
1.00935818331 	0.00216016538214 	0
1.01932549815 	2.74244321437e-05 	0
1.0241483292 	-0.000986929894949 	0
1.02593496557 	-0.00143170036278 	0
1.02635283052 	-0.00139924807509 	0
1.02613296789 	-0.0010512065446 	0
1.0297367796 	0.00339624702524 	0
1.03227180957 	0.00554389164473 	0
1.03642876109 	0.0087783434545 	0
1.04159892887 	0.0129807830796 	0
1.05021321191 	0.0196307132476 	0
1.06187301945 	0.0297417768218 	0
1.077342318 	0.0456502236772 	0
1.10482033837 	0.0726629430128 	0
1.13811497434 	0.118338775572 	0
1.12602528764 	0.17041935691 	0
1.04468753643 	0.193121933298 	0
0.923359254054 	0.180563625521 	0
0.816046934957 	0.16047166114 	0
0.773139162058 	0.139429049064 	0
0.786458480307 	0.123045408985 	0
0.842903038606 	0.112951535931 	0
0.918716680257 	0.0965685984045 	0
0.974017849448 	0.0699154300102 	0
1.00445808539 	0.0418434111056 	0
1.01913640317 	0.0231283001549 	0
1.02518959406 	0.0120040762066 	0
1.02734772519 	0.00583996787744 	0
1.02746945955 	0.0025295364169 	0
1.02692866646 	0.000898044906359 	0
1.02618736277 	0.000250502180275 	0
1.02744932406 	0.00361490104125 	0
1.02916731461 	0.0059524357471 	0
1.03192350977 	0.00948719017102 	0
1.03514716852 	0.0145711263069 	0
1.04016417486 	0.0225638375388 	0
1.04653681839 	0.0354145730288 	0
1.05336284653 	0.0552217464928 	0
1.06414650379 	0.0859068605842 	0
1.07788884089 	0.13609836739 	0
1.06384331346 	0.201553589628 	0
1.00681270528 	0.261015679039 	0
0.916138124456 	0.290664254831 	0
0.832495080356 	0.287407961633 	0
0.800914440409 	0.263908092151 	0
0.81390144071 	0.232931353703 	0
0.872168658338 	0.199897396947 	0
0.95565917661 	0.158105222369 	0
1.01568835074 	0.105921797221 	0
1.03876475848 	0.060764966211 	0
1.0404918585 	0.033691859697 	0
1.03741215362 	0.0180981226685 	0
1.03417769766 	0.00948903464235 	0
1.03113459445 	0.00461340245469 	0
1.02875730096 	0.00203455146178 	0
1.02697706772 	0.000881820143223 	0
1.02535963046 	0.00298733128538 	0
1.02631516659 	0.00500418531194 	0
1.02756732393 	0.00814824381469 	0
1.02847090287 	0.0129886662801 	0
1.02917323564 	0.020948405081 	0
1.02912650986 	0.0342041470682 	0
1.02657800165 	0.0555521532646 	0
1.02277948366 	0.0867994856472 	0
1.01828196699 	0.13456276095 	0
0.99283166007 	0.198307612433 	0
0.947975433667 	0.267263968173 	0
0.891343858444 	0.314947001897 	0
0.841307542393 	0.321479053973 	0
0.828045705572 	0.30261080403 	0
0.849086627684 	0.26929768004 	0
0.917681871011 	0.221603658802 	0
1.01318820474 	0.158295921409 	0
1.07170689407 	0.093227483827 	0
1.07775065157 	0.0511077411593 	0
1.0626723437 	0.0290169596087 	0
1.04988881162 	0.0158390552594 	0
1.04115067618 	0.00872133113055 	0
1.03507720134 	0.00440132177688 	0
1.03082510103 	0.00203346191248 	0
1.02794865388 	0.000900138058748 	0
1.02388169655 	0.00174769598215 	0
1.02418939243 	0.00296419019498 	0
1.02409185284 	0.00494737745664 	0
1.02273136978 	0.0080211581209 	0
1.01920759096 	0.0133889798773 	0
1.01238503942 	0.0226931995002 	0
1.00080203349 	0.0392581782897 	0
0.985505359795 	0.0634253549357 	0
0.965359266276 	0.100876702262 	0
0.926326383844 	0.153694936316 	0
0.885346087978 	0.213421164786 	0
0.857769527983 	0.267567069379 	0
0.841592394882 	0.287185815986 	0
0.850998359865 	0.273139943494 	0
0.894219971889 	0.231057809977 	0
0.984838843411 	0.161903307007 	0
1.08424578889 	0.0899076032753 	0
1.12148754933 	0.0408159815922 	0
1.10302210316 	0.0214928720061 	0
1.07614794886 	0.0129573825171 	0
1.05769779366 	0.00700829452635 	0
1.0455382769 	0.00407279336361 	0
1.03767647485 	0.00203897350127 	0
1.03221124357 	0.00100684842961 	0
1.02865390818 	0.000427247564589 	0
1.02323049047 	0.00030916316532 	0
1.02323238876 	0.000359778254418 	0
1.02252129195 	0.000428973456133 	0
1.02010112892 	0.000300608053684 	0
1.01438888843 	0.000298768936624 	0
1.00324341742 	0.000692344126299 	0
0.985503444797 	0.00389743961779 	0
0.96172377519 	0.0113849738886 	0
0.928056294743 	0.0296385959526 	0
0.878541934291 	0.0604164261785 	0
0.83622440484 	0.0927963014373 	0
0.822765160448 	0.126146482011 	0
0.838325912238 	0.144146792842 	0
0.884970610041 	0.133877752577 	0
0.962242763389 	0.0904911727719 	0
1.06065701282 	0.0277844971918 	0
1.1343025569 	-0.0118885416776 	0
1.13960489888 	-0.018506221134 	0
1.10617597702 	-0.0109272911264 	0
1.07791569829 	-0.00606084281244 	0
1.0591072652 	-0.00406884822217 	0
1.04631509307 	-0.00242584072694 	0
1.03817088942 	-0.00167479827954 	0
1.03240181422 	-0.00094711112957 	0
1.02876635536 	-0.000549534491413 	0
1.02357365158 	-0.00106769489013 	0
1.02394673881 	-0.00221036708881 	0
1.02389890186 	-0.00422703694785 	0
1.02263819287 	-0.00782824095033 	0
1.01851677226 	-0.0139030697075 	0
1.00855651079 	-0.0239654283132 	0
0.989494000631 	-0.038400518967 	0
0.959774010009 	-0.0527148167394 	0
0.915803072866 	-0.0581040733733 	0
0.861579201219 	-0.0551669284548 	0
0.821468490037 	-0.0548925632158 	0
0.812026199853 	-0.0580285425672 	0
0.841236919146 	-0.0611807139844 	0
0.912779635061 	-0.0673384177182 	0
1.00751799363 	-0.0842968835893 	0
1.09117086012 	-0.100520288746 	0
1.1312151639 	-0.0899125599568 	0
1.12104836168 	-0.0605425091745 	0
1.09178851102 	-0.0358989158562 	0
1.07015968634 	-0.0219952974 	0
1.05467984861 	-0.0137661366044 	0
1.04360151392 	-0.00845247262637 	0
1.03648837931 	-0.00531587341 	0
1.03128797684 	-0.00311738761411 	0
1.0280509239 	-0.00178797568978 	0
1.02492264837 	-0.00207225122543 	0
1.02634745082 	-0.00400810120808 	0
1.02808023566 	-0.00738314627615 	0
1.02987946096 	-0.0131456520401 	0
1.03077087497 	-0.0229289602856 	0
1.02806820476 	-0.0395542423026 	0
1.0139451685 	-0.0670223392625 	0
0.981481906868 	-0.100898970375 	0
0.930193646793 	-0.128253061236 	0
0.873317785924 	-0.148444854961 	0
0.836507366421 	-0.169434590722 	0
0.827089982704 	-0.190512129742 	0
0.84899843386 	-0.205886555854 	0
0.912421705653 	-0.207160133586 	0
0.998617374453 	-0.19442861971 	0
1.06791285641 	-0.169377996427 	0
1.09279748899 	-0.128955850389 	0
1.08347202666 	-0.0849505603957 	0
1.06786152499 	-0.0527554635658 	0
1.05589364235 	-0.0330495242462 	0
1.04567513888 	-0.0203508376935 	0
1.03797077165 	-0.0123957306516 	0
1.03290129821 	-0.00758331965352 	0
1.02900906872 	-0.00445330731533 	0
1.02654426159 	-0.00257245893767 	0
1.02678196901 	-0.00235877241721 	0
1.02945043021 	-0.004421939143 	0
1.03325946737 	-0.0078734394339 	0
1.03858758312 	-0.0136403106662 	0
1.04559189497 	-0.023160130095 	0
1.0533066055 	-0.0395828307389 	0
1.05117754866 	-0.068188852606 	0
1.0211181215 	-0.112650802225 	0
0.963923633946 	-0.157774216018 	0
0.902600771196 	-0.193467464977 	0
0.863388505336 	-0.224730473934 	0
0.848818990929 	-0.247986083102 	0
0.856636550423 	-0.26293076262 	0
0.89866893863 	-0.26081419996 	0
0.963707086455 	-0.235610583712 	0
1.0205942427 	-0.191004547797 	0
1.04336449296 	-0.138161192361 	0
1.04190512423 	-0.0933206185319 	0