1.01411285697 	-0.00775872738361 	-1.07796621266e-21
1.0155153156 	-0.0121387892079 	-8.33382732822e-22
1.01722574329 	-0.0170866733135 	3.33174447367e-22
1.01929797333 	-0.0229692574979 	-2.28952191603e-23
1.02135959343 	-0.0299843670096 	-3.37703492443e-22
1.02289950169 	-0.0385296595032 	-2.07490474148e-22
1.02289852601 	-0.0485782117218 	-2.32647439713e-22
1.01940196209 	-0.059049035534 	-1.26841939155e-21
1.01044717207 	-0.0716851799208 	1.87229908837e-20
0.99126442767 	-0.0791474706408 	1.50808807284e-21
0.962696635088 	-0.0755026104044 	6.81109801169e-23
0.932017715563 	-0.0517841222398 	1.96235652814e-21
0.916359861792 	-0.00863959664269 	-4.81794685421e-24
0.927880325456 	0.0357557340599 	2.13661356506e-22
0.955570146525 	0.0622398154995 	-1.5984292036e-21
0.982766668328 	0.0694936361149 	1.9124136747e-21
1.00203558925 	0.0653978481408 	2.02548366302e-20
1.01222587818 	0.0553290529051 	-1.64220385264e-21
1.01728563907 	0.0470285865072 	-1.72590866861e-21
1.01874526715 	0.0381777368081 	3.65818207918e-22
1.01845001999 	0.0302426572616 	9.16205791864e-22
1.01742845034 	0.0235028985575 	-3.2020554817e-23
1.01616331154 	0.0176666815215 	-4.7595557881e-22
1.01499850489 	0.0126587943919 	1.1348302486e-21
1.01399336662 	0.00808878788867 	1.14184806472e-21
1.01840291904 	-0.00807987480804 	3.40866042185e-22
1.02029967679 	-0.0126231404001 	6.99103537615e-22
1.02285589441 	-0.0179635830887 	3.49017957316e-22
1.02601528592 	-0.0243141988424 	-9.83552274053e-23
1.02960610986 	-0.0321328259646 	5.20313257779e-22
1.03308200606 	-0.0421393888666 	-2.13367067453e-22
1.0353129494 	-0.0548614228483 	3.52417894475e-22
1.0342859036 	-0.0714050136489 	1.43177016457e-22
1.02572842602 	-0.0920774600434 	-5.24500882888e-22
1.00229134792 	-0.112918575346 	-2.30983616144e-21
0.954644020029 	-0.124244345676 	-3.48950643032e-21
0.885633075568 	-0.0964925368955 	9.89213359131e-21
0.844781088117 	-0.010317138393 	1.67339828984e-22
0.878666323552 	0.0777104472734 	9.88204171217e-21
0.942924797477 	0.110414368819 	-8.80269696148e-21
0.989407500172 	0.104820973482 	-2.38006269102e-21
1.01388996291 	0.0884401610785 	-5.5460125584e-22
1.02488114197 	0.0710206882037 	-3.65745543374e-22
1.02827477623 	0.0561456527197 	-8.81809576876e-22
1.02820985956 	0.0441107067843 	4.33113530725e-22
1.02652000978 	0.0342178028053 	-9.61581757678e-22
1.02423257485 	0.0261476348793 	1.71780165738e-22
1.02199480807 	0.0194379040288 	-7.96515606242e-22
1.02005238639 	0.0136976285514 	-1.03936930194e-21
1.01854623416 	0.00877001908205 	-7.75965471095e-23
1.02269591761 	-0.0080570331492 	7.24227966498e-24
1.02521403723 	-0.0124086801624 	2.18960907615e-22
1.02868283138 	-0.0177836181113 	-1.67062370488e-22
1.03313048365 	-0.0241859909663 	5.43795269453e-26
1.03865476242 	-0.0322058355562 	1.07218798111e-22
1.04497474888 	-0.0428878740539 	7.65837370692e-24
1.05131908116 	-0.0575519330328 	-6.09012275659e-23
1.05591474914 	-0.0785029558013 	-3.422139961e-22
1.05451314438 	-0.108770908089 	1.24106909366e-23
1.03681434951 	-0.153050477178 	6.8670467547e-22
0.975073378514 	-0.207685912942 	1.23502869922e-20
0.816218678224 	-0.219676938392 	-2.00706345336e-21
0.667473534144 	-0.0137036790212 	-2.66083465555e-21
0.804211614263 	0.195402259536 	-3.8447494667e-21
0.955309057185 	0.193658828004 	1.28095657511e-20
1.0173988686 	0.148447549142 	-8.24142923895e-22
1.03858571322 	0.110268697682 	-5.62574317982e-23
1.04424535855 	0.0829997330995 	1.38356116492e-21
1.04356763029 	0.0629636842438 	5.15577577483e-22
1.04023883522 	0.0480607212953 	-1.96398826111e-22
1.03605706624 	0.0365437873092 	-2.21512487875e-22
1.03195523471 	0.0275311526023 	2.84260466888e-24
1.02842372571 	0.0202574027618 	5.07379273782e-22
1.02553501092 	0.0140980929259 	-5.45355012054e-22
1.02335271937 	0.00902759191615 	-5.58177096305e-22
1.02688079742 	-0.00755095789996 	1.32644588052e-23
1.02996209979 	-0.0116132248555 	2.32993434455e-23
1.03426963047 	-0.0165208756142 	3.31266477225e-23
1.04008105963 	-0.0223998224182 	5.89804061548e-23
1.04762098842 	-0.0297578445102 	7.31232542335e-23
1.05722586505 	-0.0398555793905 	3.97087092503e-23
1.06898906222 	-0.0543214257949 	-3.88382594856e-22
1.08264726371 	-0.0763376466664 	-4.33992725442e-22
1.09692193276 	-0.112074375858 	6.83843131184e-22
1.10679224921 	-0.175342626715 	-1.53685188695e-21
1.09277323595 	-0.302743800056 	1.27756119595e-21
0.880825676609 	-0.604856688577 	7.20912914297e-23
0.854624458753 	0.562782894439 	1.37398018168e-21
1.05749138506 	0.290038444665 	-6.23768943635e-22
1.07796351937 	0.177889751512 	-5.62209894049e-22
1.07655624579 	0.121678477456 	-1.47971621277e-22
1.06987765893 	0.0879669874425 	4.18169350643e-22
1.06183801893 	0.0650732249306 	-1.58245942262e-23
1.053814134 	0.0487047627421 	5.72996614778e-23
1.04649039442 	0.0364737962749 	8.84392198556e-23
1.04019410467 	0.0272316529718 	5.13958883461e-23
1.03508911167 	0.0198714407426 	-8.60599436391e-23
1.03114884799 	0.0137978081194 	1.32688288712e-23
1.02824704067 	0.00878034771827 	-1.11194273431e-23
1.03073572592 	-0.00654660088684 	1.14930968828e-23
1.03422954934 	-0.0102681331125 	-4.42128140126e-23
1.03919174955 	-0.0143221917185 	-4.81266142485e-23
1.04614530178 	-0.0191191577568 	1.43918330659e-24
1.0554003493 	-0.0250058443439 	-9.28043289733e-23
1.06799350975 	-0.0328513751346 	-6.6958098569e-24
1.08503100475 	-0.0440623888659 	-8.08756996876e-24
1.10829132686 	-0.0615200990572 	4.02415183828e-23
1.14117809353 	-0.0911921988541 	-6.45905669039e-22
1.19056659939 	-0.145084166238 	-2.8938902494e-22
1.28416644891 	-0.246745971502 	2.44575006493e-22
0.0399298109333 	0.00136272543442 	-1.75183180112e-21
1.22738640879 	0.247847405896 	-2.04572432559e-22
1.15101705507 	0.161862994516 	2.64778750054e-22
1.1178261222 	0.113629825272 	6.6286689708e-22
1.09685717744 	0.0825693721462 	-1.85580746853e-22
1.08079583244 	0.0608948041883 	-2.02712127847e-24
1.06765280786 	0.0452565669205 	2.7657785517e-24
1.05687282015 	0.0336761039644 	3.32902445258e-23
1.04828347777 	0.0249756867886 	-7.09442316267e-26
1.04153059218 	0.0181421974688 	-1.0229892055e-23
1.03652380687 	0.0126636890414 	-1.66760326947e-23
1.03293559393 	0.0078821291936 	2.46734873464e-23
1.03385853373 	-0.00563626812969 	-3.54054409046e-24
1.03763747423 	-0.00838809486339 	6.51814273087e-23
1.04307585564 	-0.0115147405117 	2.82722349265e-23
1.05064791889 	-0.0148260071132 	1.50775783945e-23
1.06080764104 	-0.0185585451524 	1.70249943392e-22
1.07512098309 	-0.0228348387892 	2.62584491991e-22
1.09524449605 	-0.0281501035143 	-1.53324478409e-21
1.1247298402 	-0.035761344356 	4.93417783382e-22
1.16965548682 	-0.0483032056466 	2.00482515572e-21
1.24152527276 	-0.0706152332405 	-1.2255715504e-20
1.34319804286 	-0.101531058239 	3.27633446475e-20
0.118064076535 	-0.0513439601428 	1.65393524957e-21
-5.17326931071e-05 	-0.0146596532819 	-4.33385448819e-22
0.143634135628 	-0.00636128563063 	3.03286185457e-23
1.25901984294 	0.117256202866 	-2.77768860734e-20
1.191510262 	0.11265847863 	8.26049396968e-21
1.14857091179 	0.0896811116912 	7.60448311847e-22
1.11969731026 	0.0679065656191 	1.75243857543e-22
1.09749846934 	0.0505838439077 	1.03692694237e-21
1.08004932544 	0.0376184501958 	-1.77220383429e-22
1.06611653162 	0.0279510584458 	-1.29225947731e-22
1.05542479999 	0.0207220533742 	-6.24502756631e-24
1.04720568552 	0.0151017269803 	1.55201643605e-23
1.04114897294 	0.0104713185915 	1.11526995781e-24
1.03690096422 	0.00673100988123 	-2.53622044121e-23
1.03641742001 	-0.00443012961374 	2.11049983016e-23
1.04016376108 	-0.00640493986639 	-4.33438759441e-22
1.04573499221 	-0.00853567088428 	5.11095042377e-22
1.05332916141 	-0.0103352680377 	-4.23359627375e-24
1.06342246007 	-0.0117508426784 	-4.1958872408e-22
1.07734437971 	-0.012155071056 	-4.35866266471e-22
1.09698482584 	-0.0107178195742 	1.24231004967e-21
1.12624740801 	-0.00592430098657 	4.36227564041e-21
1.1718102762 	0.00360762637886 	1.12307366054e-21
1.24973881339 	0.0178475549967 	4.35102235021e-21
1.33986727079 	0.0359124382543 	3.7626585953e-21
0.439927893669 	-0.105156885144 	-5.30579622442e-21
-0.156749289696 	-0.225004089664 	-3.42570166639e-21
0.118174406142 	-0.124868170454 	-4.9484229437e-21
1.17872609551 	0.0381843603903 	-1.91465536164e-21
1.19941763403 	0.0729626357172 	-2.45798731429e-21
1.1665681598 	0.0621903826884 	-9.09181197322e-23
1.13607318349 	0.0478018929481 	-3.57819613147e-21
1.11030416719 	0.0356613956906 	-1.05707818091e-21
1.08952680466 	0.0266113069 	2.62414067315e-22
1.07332243909 	0.0198646432462 	3.16175100035e-22
1.06093816869 	0.0148109272207 	2.74935917905e-24
1.05160352506 	0.0109499134076 	-2.98365938801e-22
1.04475401482 	0.00755926314126 	2.38274318111e-22
1.04013498465 	0.00497184557094 	1.88958573551e-22
1.03835769971 	-0.00315385457018 	-3.21709586244e-22
1.04194315802 	-0.0045349666952 	-8.66638623735e-22
1.04723614928 	-0.00580613967154 	-5.97866539852e-22
1.05432050652 	-0.00644451069367 	8.78280059615e-23
1.06326056559 	-0.00605070400218 	-7.95182462111e-22
1.07507179151 	-0.00347621520621 	5.43130414337e-22
1.0904554128 	0.00340144475918 	-1.36533302525e-21
1.11214116558 	0.0183849498694 	-9.19674544457e-23
1.14864057523 	0.0497649908609 	-3.07432190763e-21
1.19947244156 	0.10449554028 	-3.8525992696e-21
1.27684780748 	0.205461361699 	9.26049770235e-21
0.689462803937 	0.208351551531 	1.62955019799e-20
-0.133484051504 	0.0890907243584 	6.49061107665e-22
0.0662750442984 	0.0149094149384 	5.31428805755e-21
1.08183505659 	0.0432202347633 	-9.56323312203e-22
1.21017154455 	0.054138909967 	-1.74424946911e-21
1.18107368075 	0.0352311099827 	-1.43543062676e-21
1.14667240446 	0.0239479781571 	2.85510297929e-22
1.11830875347 	0.0173610688819 	1.54449725124e-21
1.09557444473 	0.0129530083522 	-5.61422590363e-22
1.07747942149 	0.0100847515111 	8.12227167061e-22
1.06423099901 	0.00776780975913 	-8.54280200617e-23
1.05431317156 	0.00604750726095 	4.06880396076e-22
1.04713883575 	0.00428136245562 	5.41124657788e-22
1.04232550956 	0.00299196322638 	2.51558469631e-23
1.03960425304 	-0.002085941867 	9.11116627953e-22
1.04310908185 	-0.00292200082631 	7.74176452437e-22
1.04788011807 	-0.00359178167838 	-3.21686103055e-22
1.05419937482 	-0.00361324173879 	-1.31929018829e-22
1.06146192033 	-0.00240717381458 	4.23046716986e-22
1.07005752155 	0.00133925635421 	1.60187632991e-22
1.07923132035 	0.0102234742601 	-2.20350416194e-22
1.08638564341 	0.0278066796684 	6.88543801425e-22
1.09732694124 	0.0656821727411 	2.33753336997e-20
1.1027514697 	0.141717565966 	2.19561071892e-21
1.11473809855 	0.292597959044 	6.85761454357e-22
0.698230997063 	0.4458725617 	3.95342107436e-21
-0.00417480912101 	0.470857424951 	-1.98437126197e-22
0.217665062268 	0.279463142753 	1.13475902709e-21
1.08627200227 	0.0639627378651 	-9.82902054021e-22
1.24410754924 	0.0259949564564 	1.67103748057e-21
1.19271981038 	0.00151635677315 	2.42812447355e-20
1.15171386525 	-0.00274893035817 	4.611020138e-22
1.12149193255 	-0.00461151494941 	2.7549112204e-21
1.09640947455 	-0.00197252161247 	-2.94511363143e-22
1.07824097139 	-0.000576605407937 	-6.51715215128e-22
1.06494190096 	0.000309201888104 	1.14787928794e-22
1.05507029465 	0.00090441757181 	2.72369273594e-22
1.04810829253 	0.00102166186286 	-5.11089917761e-22
1.04325330753 	0.000931531508229 	-3.96593200443e-22
1.04040608334 	-0.00110090339546 	-1.11552151049e-21
1.04377759924 	-0.00153658669457 	-4.49373156938e-22
1.04810251612 	-0.00193087688477 	-7.25202139372e-23
1.05372646804 	-0.00188938807344 	-3.10406085731e-22
1.05968023318 	-0.00108247034055 	2.76121239718e-22
1.06538740036 	0.00194704198888 	-9.45975310574e-22
1.0668384531 	0.00681649019045 	-7.21627040477e-22
1.06406393501 	0.020177435784 	-7.87623271562e-22
1.04792315171 	0.0481035269242 	1.87490025095e-21
1.00478056673 	0.103949799951 	6.08168361516e-23
0.929650985025 	0.227979715407 	-1.88769542994e-21
0.507368455343 	0.428445448273 	-1.24159770267e-21
0.113266453214 	0.502037947375 	-9.2214778676e-22
0.543959246669 	0.225908139199 	4.30149966384e-21
1.19690481737 	-0.0330872959238 	-3.42464962294e-21
1.27813021062 	-0.053052473776 	1.48748462879e-21
1.19435801091 	-0.0502345807897 	3.73498718946e-21
1.14859029227 	-0.036682136237 	-9.32796502913e-22
1.11418207214 	-0.0244844432558 	1.15637158153e-21
1.09160820412 	-0.0185153064847 	8.94779487488e-22
1.07575875539 	-0.010981548427 	-1.49423109375e-21
1.06299778525 	-0.00667369085656 	2.66373368699e-22
1.05384354597 	-0.00378304463576 	8.30217146014e-23
1.04755616745 	-0.00205511634007 	5.69412632788e-22
1.04310418639 	-0.0010085467228 	2.40877580737e-22
1.04065267089 	-0.000248432190936 	1.317354774e-21
1.04406911116 	-0.000217016859968 	-2.54428542494e-21
1.04827000183 	-0.000517946644027 	1.43201084507e-21
1.05344386487 	-0.000166494327414 	5.91026163978e-24
1.05862602071 	-0.00113706948506 	1.66061324522e-21
1.06305770288 	-0.00165012473302 	-4.01019067798e-22
1.06340425019 	-0.00171106142727 	-9.5736577755e-22
1.05506437809 	-0.00211597776706 	4.24834827172e-23
1.02253938413 	0.00310564274931 	1.37730282741e-22
0.957333310139 	0.0108750101847 	-2.2831873306e-22
0.787783744974 	0.0803541337677 	2.20920339894e-21
0.323197489256 	0.25919542625 	3.07971164837e-23
0.3339489907 	0.116712030833 	-5.04103713646e-22
0.849156981143 	-0.150891825582 	1.68369080219e-22
1.23009945229 	-0.217710440714 	-1.10331742929e-20
1.24570203372 	-0.158410566013 	1.20949762067e-21
1.16577610077 	-0.102610691597 	1.37899511799e-21
1.12861725879 	-0.0675216033862 	1.40495964493e-22
1.09953189293 	-0.0441017188227 	-2.54379119898e-21
1.0814847757 	-0.0280551900356 	-7.19177337301e-22
1.06845044302 	-0.0188296080269 	1.87744862393e-21
1.05837845396 	-0.0125331759306 	-1.14217820745e-24
1.05094250664 	-0.00739598053608 	-1.4669482259e-21
1.04566705519 	-0.00471646442745 	2.32608026608e-21
1.04186333541 	-0.00250065251685 	-6.14816995815e-23
1.0405786959 	0.000728600328492 	-9.47583117662e-22
1.04416420041 	0.00128892100924 	2.60769296143e-24
1.04797369524 	0.00177155234115 	2.59143917888e-21
1.05354564895 	0.000370717377633 	-1.13129346847e-21
1.06020487673 	-0.00120201675859 	1.52613932889e-21
1.06627369402 	-0.00375537446878 	-1.46327990728e-21
1.0694678557 	-0.0115289399055 	1.55610470736e-22
1.06546463285 	-0.0245056012827 	3.03438182617e-24
1.04270826372 	-0.0537563267051 	-1.16884363784e-21
0.953371614769 	-0.101559845746 	1.49333458704e-21
0.647772169797 	-0.0810380997396 	-1.44757297071e-21
0.417565044314 	-0.130087460106 	-6.45589819083e-22
0.560887433223 	-0.293277323363 	-3.1301869767e-22
0.931544198217 	-0.401194352499 	-2.94399786591e-21
1.13942235606 	-0.333434407252 	1.4774527384e-22
1.15096480419 	-0.21979261363 	-3.37824101281e-21
1.10914501804 	-0.135401635087 	2.62602090074e-21
1.09208832221 	-0.0862909847717 	2.71804314827e-23
1.07821064479 	-0.055400123235 	4.41876013702e-22
1.06719423718 	-0.0355583918144 	-2.74206427391e-21
1.05842625772 	-0.0228069456923 	2.17420231376e-21
1.05178572435 	-0.0146142626333 	-4.26090911119e-22
1.04647298219 	-0.00964725723915 	-2.93329874777e-21
1.04295657695 	-0.00651541435336 	-6.17893537458e-23
1.03995203133 	-0.00342136621031 	5.26375437703e-22
1.03970458382 	0.00198320318805 	7.63441130963e-22
1.04365999871 	0.00234142812175 	-3.9032627616e-22
1.04769888486 	0.00251076815225 	-2.19106938688e-22
1.05457245047 	0.00289897249366 	2.67926099377e-22
1.0623298309 	0.0013510051362 	2.39362049405e-22
1.07358406344 	-0.00157612916975 	4.382872261e-22
1.08371969298 	-0.0128843950639 	8.67914363558e-23
1.09866571962 	-0.0307780571297 	4.5444915472e-23
1.1072667991 	-0.0869689364777 	1.0317265016e-22
1.0226259371 	-0.153387946588 	7.33927352723e-25
0.696044100455 	-0.300804754719 	5.9761036273e-23
0.529004407699 	-0.414466638367 	-7.98569783201e-24
0.643707993099 	-0.465276575642 	-4.13982085894e-22
0.894781635127 	-0.448009814141 	1.09009443467e-21
1.01777358003 	-0.344478305465 	1.22362878868e-21
1.04097730268 	-0.213614092673 	6.62952798025e-23
1.04541674166 	-0.134624527479 	-8.93868687093e-23
1.05275408549 	-0.0861640599173 	-2.79231586807e-23
1.05283926396 	-0.0547961313307 	1.18693814233e-22
1.05133683457 	-0.0355301655033 	7.61830241706e-22
1.04868633464 	-0.0229687798961 	2.38856638478e-22
1.04496334474 	-0.0147443273253 	1.43324016114e-22
1.04201447268 	-0.00963449029458 	-3.57254812514e-22
1.04003492815 	-0.00653605964383 	-8.6864510513e-22
1.03772511648 	-0.00372781643063 	-5.30348323444e-22
1.03863645991 	0.00305806957913 	-1.99334574506e-21
1.04176546355 	0.0038339142945 	6.4921843631e-22
1.04708540538 	0.00542942191454 	-2.01685869652e-24
1.05432963595 	0.00606828148509 	4.70063822838e-23
1.06408100894 	0.00754987703219 	-2.62003058136e-22
1.07924000015 	0.00767464460896 	-2.39471836233e-23
1.0972110995 	-0.000613063009748 	4.74381258662e-22
1.13468907546 	-0.00272362320539 	2.75310727859e-23
1.19677586062 	-0.048140921112 	1.22935451708e-23
1.14752746845 	-0.109116226058 	-1.53484986239e-22
0.878217086423 	-0.264568538714 	-1.3880292452e-21
0.626684393729 	-0.441595135276 	7.28072675191e-24
0.628046750406 	-0.474296169459 	-3.02530580285e-22
0.784996035651 	-0.390907607767 	1.86047611528e-22
0.890736212293 	-0.265726038983 	1.66020212267e-22
0.934635636349 	-0.168672047588 	-1.68452052629e-23
0.978384923628 	-0.101634954211 	1.64295532667e-23
1.01590563603 	-0.0655344191899 	2.72803705419e-23
1.03082887828 	-0.0420602235902 	4.66165400589e-22
1.03711488442 	-0.0272126659138 	-1.02347676192e-22
1.04055694903 	-0.0187149039365 	-2.5359869854e-22
1.03989166096 	-0.0125216037345 	4.35916880776e-23
1.03857823781 	-0.00835726343512 	1.43649524966e-23
1.03668369107 	-0.00559815377785 	6.24254121897e-22
1.03533909064 	-0.0037608332558 	1.27101472519e-22
1.03689176684 	0.00306956666463 	-3.96258244572e-22
1.04021526157 	0.00542693884074 	-4.26532550377e-22
1.04540684141 	0.00791202270649 	1.26714228828e-22
1.05187084886 	0.010416630433 	1.64138089136e-24
1.06229835275 	0.015210646824 	1.23335149134e-22
1.07757779711 	0.0178590495673 	2.77620237704e-22
1.09916789284 	0.0238716768922 	2.1673135725e-23
1.14433289262 	0.0322257929381 	-4.90170097994e-22
1.21026534945 	0.0420536270198 	7.33545553807e-22
1.20775737035 	0.0484039463199 	4.22926785751e-22
1.04124509455 	-0.0175445013905 	-8.27839791604e-22
0.79026119996 	-0.160789821374 	0
0.646559174293 	-0.261476847292 	-1.6127106271e-36
0.670012973093 	-0.257228162276 	-2.55668277274e-25
0.772064701214 	-0.171550179297 	1.52084775551e-22
0.870034930873 	-0.089799233867 	-1.54225358588e-22
0.941976829617 	-0.0538886061123 	-1.28082863075e-22
0.989608303058 	-0.0339065329992 	1.93461430084e-22
1.01583813449 	-0.0209259272362 	-8.57910065247e-24
1.02757322486 	-0.0144824463491 	1.79155504315e-23
1.03347215668 	-0.0107891693367 	8.84642258544e-23
1.03563314706 	-0.00771599538519 	3.33774868275e-23
1.03560640328 	-0.00561273826907 	1.18491709169e-22
1.03477737042 	-0.00397629928402 	-3.53413189818e-22
1.03374560765 	-0.00242593743516 	-3.33866256051e-22
1.0349328233 	0.0041243762072 	0
1.03776593305 	0.00681711165163 	0
1.04219989704 	0.0101853925524 	0
1.04755813128 	0.0143720055778 	0
1.05629599483 	0.0210551238493 	0
1.06898283524 	0.0294840242609 	0
1.0852903854 	0.0436017376475 	0
1.11819131077 	0.0662420146419 	0
1.17235020139 	0.107380540734 	0
1.18775343573 	0.165786708478 	0
1.09158806773 	0.188911442898 	0
0.898774767295 	0.131906675171 	0
0.725871286271 	0.0487619483356 	0
0.675110904107 	-0.00201079603079 	0
0.725372067387 	0.00253980873765 	0
0.828698301606 	0.0284660119355 	0
0.927527599126 	0.025763235746 	0
0.983889441269 	0.0136791298234 	0
1.01379941665 	0.00598962237981 	0
1.02778728161 	0.00108082803144 	0
1.03339763476 	-0.00176957556966 	0
1.03533166757 	-0.00276124283116 	0
1.03526034626 	-0.00289048011322 	0
1.03419810243 	-0.00253867705663 	0
1.03298107955 	-0.00174982056274 	0
1.03253264646 	0.00459099879871 	0
1.03458325934 	0.00741597239262 	0
1.03781048117 	0.0113201542342 	0
1.04161020763 	0.0166958491329 	0
1.04740262511 	0.0243906562041 	0
1.05521911176 	0.0363704493689 	0
1.06443356548 	0.0547124749273 	0
1.08052210967 	0.0820261653504 	0
1.10608384364 	0.132229030856 	0
1.1151373794 	0.210545384001 	0
1.06263527664 	0.280969748494 	0
0.927067493316 	0.299693479049 	0
0.778862992636 	0.275706279266 	0
0.717424665952 	0.233400075133 	0
0.745195112897 	0.198907990786 	0
0.846681083099 	0.167028915132 	0
0.957572412756 	0.118257150536 	0
1.01147950191 	0.0679477237277 	0
1.03118857484 	0.0335207835892 	0
1.03735727472 	0.0161963659892 	0
1.03832360057 	0.00627200705449 	0
1.03764864341 	0.00139905873005 	0
1.0359610889 	-0.000681602674428 	0
1.03407889345 	-0.00133823796862 	0
1.03239831719 	-0.00115538104494 	0
1.03003404422 	0.0043843756861 	0
1.03130386314 	0.00706210597979 	0
1.03315864812 	0.0107844424439 	0
1.03520591227 	0.0162464265237 	0
1.03753274054 	0.0240748550443 	0
1.03984074687 	0.0367038028676 	0
1.041658524 	0.0562179518452 	0
1.04198219237 	0.0850979387207 	0
1.03999228905 	0.134664509694 	0
1.02837647944 	0.209155743292 	0
0.993535757391 	0.298158158592 	0
0.90134338351 	0.358688559689 	0
0.79377068637 	0.365892095009 	0
0.755011736915 	0.339024909074 	0
0.79136660838 	0.2969112609 	0
0.906582926815 	0.234503383886 	0
1.02587084983 	0.154520272068 	0
1.06787073839 	0.0842264665264 	0
1.06475926238 	0.0419297149939 	0
1.05423025 	0.021142110103 	0
1.04712593648 	0.0088864118313 	0
1.04184569589 	0.00310883061054 	0
1.0376013995 	0.000270508997433 	0
1.03442633126 	-0.000807882679095 	0
1.03211710229 	-0.000893825189296 	0
1.0276355494 	0.00351993197754 	0
1.0282303456 	0.00562733035838 	0
1.0287096554 	0.00844047310667 	0
1.02865933695 	0.0126536341064 	0
1.02710692138 	0.0191700820602 	0
1.02332965203 	0.0297499054773 	0
1.01598973602 	0.0474555445609 	0
1.00199810191 	0.0753680915384 	0
0.979596950551 	0.119290024636 	0
0.944742631136 	0.181701168548 	0
0.90663200759 	0.266226384596 	0
0.851746311038 	0.342306525465 	0
0.793677551549 	0.364890858775 	0
0.784165429086 	0.342582947596 	0
0.847244866679 	0.287185231328 	0
0.991378929831 	0.195783812573 	0
1.11008187643 	0.104906531649 	0
1.12434647562 	0.0497855891604 	0
1.09484696066 	0.0252504718945 	0
1.07029045246 	0.0125488037304 	0
1.05584242732 	0.00459513889649 	0
1.04605821848 	0.00137506866584 	0
1.03958874029 	-0.000549423974674 	0
1.03501142498 	-0.00109019187621 	0
1.03205713353 	-0.00102487254837 	0
1.02590421367 	0.00203300119113 	0
1.02606442471 	0.003135251293 	0
1.02561015919 	0.00443760430031 	0
1.02386733099 	0.00621743014534 	0
1.01927637519 	0.00915929215553 	0
1.01026569951 	0.0138912813767 	0
0.994289881069 	0.0232782372658 	0
0.96922604464 	0.0395543824164 	0
0.932242076041 	0.066618089276 	0
0.878159798097 	0.10802012298 	0
0.829297072565 	0.164997647966 	0
0.79944173338 	0.225762892063 	0
0.792716441273 	0.25055371809 	0
0.833031352054 	0.221973030597 	0
0.941083191518 	0.14487543148 	0
1.09133498662 	0.0533262236608 	0
1.17116199237 	0.00249638478243 	0
1.1484694172 	-0.00737047855629 	0
1.10437856349 	-0.0046970697279 	0
1.07657116754 	-0.00415166432651 	0
1.05931681079 	-0.00444714754337 	0
1.04759828526 	-0.00347960290079 	0
1.04038910081 	-0.00311217159743 	0
1.03507138647 	-0.0022473877843 	0
1.03176082655 	-0.00159084918784 	0
1.02530432899 	0.000420131889011 	0
1.02554986737 	0.000353354721373 	0
1.02519793789 	-0.000171697673961 	0
1.02350376606 	-0.00150944883171 	0
1.01877118308 	-0.00402783421803 	0
1.0087162438 	-0.00863525411367 	0
0.989600262478 	-0.0150790349031 	0
0.95860388079 	-0.0224876509167 	0
0.910497466315 	-0.0232231668282 	0
0.844365148011 	-0.0128080988798 	0
0.791246401082 	0.00443595574915 	0
0.774423792838 	0.0195715308599 	0
0.80666289919 	0.0202231300558 	0
0.898095751349 	-0.00800838228852 	0
1.0267605179 	-0.0634801315507 	0
1.14000008463 	-0.0973479601536 	0
1.17057860766 	-0.0818158087738 	0
1.13282945421 	-0.0518001138133 	0
1.09366446614 	-0.0310422766123 	0
1.07125478418 	-0.0200715897127 	0
1.05593798829 	-0.0136611115132 	0
1.04518302824 	-0.00908134026433 	0
1.03869687713 	-0.00632528706352 	0
1.03372756911 	-0.0040045254037 	0
1.03066680506 	-0.00251314358444 	0
1.02574967649 	-0.000709423929475 	0
1.02671042707 	-0.00166965695902 	0
1.02761746197 	-0.00380659021712 	0
1.02812155926 	-0.00791651794251 	0
1.02691810805 	-0.0153405289755 	0
1.02223508667 	-0.0285841422753 	0
1.00874286492 	-0.050977536321 	0
0.978027402858 	-0.0836489340539 	0
0.921439363201 	-0.113891256274 	0
0.848001154283 	-0.133799227216 	0
0.796600650578 	-0.149548053596 	0
0.78603632099 	-0.170503295995 	0
0.826963662988 	-0.190990923918 	0
0.925601414978 	-0.203998014731 	0
1.03579704978 	-0.203969467014 	0
1.11089352586 	-0.174573370982 	0
1.12430975796 	-0.122058348837 	0
1.09691919812 	-0.0756894329607 	0
1.07310516832 	-0.0475025207634 	0
1.05900457493 	-0.030666196582 	0
1.04805067469 	-0.0198971601058 	0
1.03999506376 	-0.0129880747937 	0
1.03503601462 	-0.00861013238357 	0
1.03112857561 	-0.00539653887439 	0
1.02876174769 	-0.00328347547677 	0
1.0267628375 	-0.00118942106185 	0
1.02883388052 	-0.0025730640093 	0
1.03165723604 	-0.00545798451608 	0
1.03546099483 	-0.0106878473212 	0
1.03999647176 	-0.0196914829978 	0
1.04521925774 	-0.0358790437339 	0
1.04558010076 	-0.0638700687138 	0
1.02174491876 	-0.11061275221 	0
0.960291523656 	-0.163892666822 	0
0.879746915237 	-0.206482802785 	0
0.826262151599 	-0.241125596644 	0
0.813792898491 	-0.27157310142 	0
0.839913934493 	-0.292879870349 	0
0.912122745289 	-0.292995484071 	0
0.993488303316 	-0.259605291479 	0
1.04955251692 	-0.200446102164 	0
1.06590414614 	-0.136964702174 	0
1.05607942111 	-0.0875039450687 	0
1.04850214761 	-0.0560703055788 	0
1.04338758476 	-0.0355400751184 	0
1.0380064264 	-0.0222981656947 	0
1.03367868945 	-0.0141387818512 	0
1.0307666068 	-0.00902649119717 	0
1.02823582921 	-0.00558417277969 	0
1.02663033849 	-0.00334854793949 	0
1.02785488427 	-0.00112799194223 	0
1.03098742544 	-0.00237284604353 	0
1.03562569467 	-0.00471366726917 	0
1.04234380283 	-0.00886209768281 	0
1.05221322743 	-0.0155153199997 	0
1.06681224038 	-0.0278171281779 	0
1.08381842144 	-0.0480758865765 	0
1.07789728398 	-0.0882954240286 	0
1.01806015464 	-0.152587564747 	0
0.924978192333 	-0.215654707469 	0
0.860050245558 	-0.263770324763 	0
0.838285568232 	-0.295625500356 	0
0.846661282733 	-0.312319298334 	0
0.886982545748 	-0.30351658503 	0
0.936037158789 	-0.256518941768 	0
0.981282800662 	-0.191043868316 	0
1.00853591192 	-0.129858326677 	0
1.01519973642 	-0.084344184575 	0
1.02119517584 	-0.0538071037807 	0
1.02553466794 	-0.0327090828519 	0
1.02688679867 	-0.0197459695535 	0
1.02703651515 	-0.0120363790381 	0
1.02658470308 	-0.00741654292051 	0
1.02559380202 	-0.00446393541412 	0
1.02475094161 	-0.00261627786865 	0
1.02863285074 	-0.000490296821608 	0
1.03235458749 	-0.00099113135266 	0
1.03808387701 	-0.00177742195541 	0
1.04636217028 	-0.00339044128341 	0
1.05918624151 	-0.00552279585448 	0
1.07845451956 	-0.0100488006671 	0
1.10608527015 	-0.0158504638154 	0
1.12494356265 	-0.0311552959767 	0
1.08772757532 	-0.0753448746981 	0
0.992546443884 	-0.143151202462 	0
0.906238554775 	-0.210494526213 	0
0.860454272186 	-0.250802300747 	0
0.844805231678 	-0.262147638525 	0
0.853588756298 	-0.240853636069 	0
0.877301276165 	-0.191225253775 	0
0.918709341792 	-0.137201031429 	0
0.958685609477 	-0.0884312397176 	0
0.980220872238 	-0.0547852076582 	0
0.996615063965 	-0.0333574812343 	0
1.00940587581 	-0.0188179416103 	0
1.01733706372 	-0.0108967833011 	0
1.0215450429 	-0.00644142929087 	0
1.0232912741 	-0.00393584774918 	0
1.02361866362 	-0.00232230765562 	0
1.02343474293 	-0.00136624246554 	0
1.02871835435 	0.000689804726287 	0
1.03242673664 	0.00124403054781 	0
1.03828635516 	0.00222355765811 	0
1.04654499006 	0.00339907104632 	0
1.05946935099 	0.00578439539436 	0
1.07816290147 	0.00904869571704 	0
1.10580226399 	0.0160986248728 	0
1.1372889046 	0.0271053629382 	0
1.13072487989 	0.0266125890522 	0
1.06246021356 	-0.00554263413914 	0
0.970005377981 	-0.0601303636585 	0
0.891834323086 	-0.0962015892114 	0
0.840936741076 	-0.103412114389 	0
0.822564813151 	-0.088824082847 	0
0.835158527407 	-0.0635606858352 	0
0.876943912819 	-0.0382065803444 	0
0.926089625524 	-0.0128825626821 	0
0.960473228998 	0.00100985628431 	0
0.984710921795 	0.00469380061564 	0
1.00278049704 	0.00461589984791 	0
1.01413579315 	0.00292601546001 	0
1.01985493045 	0.00163153331544 	0
1.02225230116 	0.000745860021076 	0
1.02295340224 	0.000337137628995 	0
1.02296694966 	7.86645158287e-05 	0
1.02782606316 	0.00192145961597 	0
1.03102556252 	0.00336747055057 	0
1.03612167561 	0.0057780619384 	0
1.04307747898 	0.0093118884051 	0
1.0538746452 	0.0153191628877 	0
1.06871108688 	0.0246665520868 	0
1.08885375834 	0.0401465487181 	0
1.1146109766 	0.0669781020317 	0
1.12142893649 	0.0990058624448 	0
1.08268642609 	0.113632562289 	0
1.00329924325 	0.10607990482 	0
0.912084984667 	0.097786996033 	0
0.844067444692 	0.0936255109629 	0
0.817864573681 	0.086879124331 	0
0.827543868387 	0.0785890798037 	0
0.866079767144 	0.0738618847231 	0
0.918913331372 	0.0721313954264 	0
0.962700948297 	0.0632080522674 	0
0.992609268779 	0.0455769239761 	0
1.01120106381 	0.0283167060025 	0
1.02028282726 	0.0165609672064 	0
1.02364625836 	0.00944815836195 	0
1.02442471047 	0.00523117032191 	0
1.02416828957 	0.00281432058917 	0
1.02362412207 	0.00141109321698 	0
1.02619355847 	0.00254945431288 	0
1.02854524663 	0.00447852629062 	0
1.03219528215 	0.0077576178216 	0
1.03689899508 	0.0128729603793 	0
1.04398738074 	0.0214246789873 	0
1.05320512997 	0.0350775307322 	0
1.06338117198 	0.0560666201472 	0
1.07576194451 	0.0893915641621 	0
1.08183778923 	0.133322093022 	0
1.05575697736 	0.174811391087 	0
0.988210684162 	0.202116812451 	0
0.907347593748 	0.216975655325 	0
0.851694959217 	0.216291638899 	0
0.834943507314 	0.201177850303 	0
0.845562403068 	0.179966531794 	0
0.881616205212 	0.157003655257 	0
0.936822090494 	0.134396115178 	0