1.01417914476 	-0.00798067365855 	-1.7296510301e-21
1.01551647228 	-0.012514991105 	-1.31669197862e-21
1.01712066566 	-0.0176354033494 	4.89401466713e-22
1.01900692659 	-0.0237494366723 	-7.97733560871e-24
1.02078582633 	-0.030995401138 	-5.31069417879e-22
1.0219266732 	-0.0397817055747 	-2.74047165334e-22
1.02138646272 	-0.0499547101887 	-3.10564535538e-22
1.01714174915 	-0.0601672289562 	-1.5587641601e-21
1.00749219159 	-0.072361181986 	2.21631179863e-20
0.987854341581 	-0.0787535219439 	1.65568647564e-21
0.959538746964 	-0.073660488982 	4.80271878289e-23
0.930076879997 	-0.0485764493305 	2.02613011865e-21
0.916403739325 	-0.00481603379655 	-3.54634303639e-24
0.929976767016 	0.0389338286485 	2.34158253849e-22
0.958848032564 	0.0640059898609 	-1.48423763319e-21
0.986243291445 	0.0697898796857 	1.72225063313e-21
1.0050106512 	0.0646243953067 	1.68229273288e-20
1.01447706713 	0.0541268162307 	-1.3081081532e-21
1.01874320751 	0.0455727095269 	-1.2832217111e-21
1.01966896925 	0.0368781362314 	2.67110109393e-22
1.01897046363 	0.0291993806492 	5.89000746355e-22
1.01766313211 	0.0227021703478 	-2.314733272e-24
1.01621579745 	0.0171071540454 	-3.14017964909e-22
1.01494810603 	0.0122745003114 	6.96762839697e-22
1.01388220952 	0.00786320434499 	6.99332443567e-22
1.01862434114 	-0.00836120592325 	5.99824406469e-22
1.02050856899 	-0.0131085985745 	1.1987237912e-21
1.02302146132 	-0.0187307459403 	7.41290697103e-22
1.02606351949 	-0.0254766430263 	-1.57493786351e-22
1.029428739 	-0.0337789457906 	7.92237764073e-22
1.0324557981 	-0.0443392686427 	-3.42418627878e-22
1.03396410676 	-0.057570550171 	6.03334311576e-22
1.03193438041 	-0.0744128687531 	2.02897673333e-22
1.0218884361 	-0.0946463936927 	-6.62005221544e-22
0.997266947054 	-0.114176531683 	-2.82187007474e-21
0.949283733746 	-0.122978062853 	-3.9630970864e-21
0.881975839306 	-0.092315183569 	1.02339130687e-20
0.84486339589 	-0.00481908199439 	1.67068004821e-22
0.882529825977 	0.0817788517741 	9.48387807193e-21
0.94843517844 	0.111524943043 	-7.85964554683e-21
0.994502389138 	0.103389304326 	-1.88517942292e-21
1.01772535905 	0.0856933161206 	-4.15517533562e-22
1.02719077159 	0.067872562239 	-2.51058816533e-22
1.02956362163 	0.0533332686337 	-4.96239009504e-22
1.02876153797 	0.0418309800177 	2.5679436705e-22
1.02662511414 	0.0325132080166 	-6.11419106701e-22
1.02411857425 	0.0249452878418 	1.04021067681e-22
1.02177072674 	0.0186385267773 	-3.56807651784e-22
1.01978880949 	0.0131924256136 	-5.90834091422e-22
1.0182756028 	0.00847074855341 	-9.69766882105e-23
1.02310201507 	-0.00833184759171 	1.22115829714e-23
1.02570201675 	-0.0129079718609 	5.31410605042e-22
1.02923239035 	-0.0186485609004 	-4.8473176514e-22
1.03370240251 	-0.0255754809832 	-2.35017792675e-24
1.03915469171 	-0.034321089326 	2.25273565705e-22
1.0451496749 	-0.0459621272465 	1.85956730842e-22
1.05071856534 	-0.0617197295452 	-4.11950265677e-22
1.05382915159 	-0.0836324097787 	-1.11457664925e-21
1.05011835697 	-0.114154281115 	-1.00750029579e-22
1.0295616986 	-0.157033643198 	1.03378599379e-21
0.96536515769 	-0.20723928193 	1.53143589883e-20
0.808300387375 	-0.212329026933 	-2.06344373956e-21
0.667657151914 	-0.00246584933464 	-2.65431386599e-21
0.812438269861 	0.20255449406 	-3.6517746418e-21
0.965209835454 	0.193841252432 	1.01149376121e-20
1.02473963358 	0.144191407238 	-5.14706804061e-22
1.04296600424 	0.10463931381 	-5.35864904424e-24
1.04624445335 	0.0776777504121 	3.98661279583e-22
1.04406022496 	0.0586618135779 	8.26313987491e-23
1.03996538534 	0.0448884546609 	-1.50111759933e-23
1.03546832044 	0.0343590769695 	-1.01389749134e-22
1.03130555395 	0.0260901783278 	9.67774137593e-27
1.02780443478 	0.0193468757168 	1.62873446459e-22
1.02498922093 	0.0135670049455 	-2.12358399839e-22
1.02288359719 	0.0087361336424 	-2.39083532217e-22
1.0274730719 	-0.00773390316003 	4.80762923709e-23
1.03073634422 	-0.011998436074 	-9.47915198968e-24
1.03526906407 	-0.0172772852088 	8.435914341e-23
1.04134166724 	-0.0237367858003 	-4.18982571389e-23
1.04910566286 	-0.0319889332261 	-6.04363025951e-23
1.05871157059 	-0.0434430869758 	-5.03065686569e-23
1.06991162384 	-0.0597522632459 	-6.37095138262e-23
1.08193690432 	-0.0839291869907 	-3.17864580915e-22
1.0927550086 	-0.12146410231 	2.32449032655e-22
1.09669747072 	-0.184458561292 	-6.92996340531e-22
1.07481621667 	-0.306122808142 	3.31448216336e-22
0.859458443948 	-0.590830484637 	-1.6167615785e-21
0.87649602991 	0.576441678066 	6.01541329047e-22
1.07565777413 	0.286258776533 	-1.6427508614e-21
1.08811944741 	0.168376682314 	-1.75253627652e-21
1.08061274736 	0.111951970226 	-5.01097274307e-22
1.0704289603 	0.0801538976276 	7.41344222517e-22
1.06074579598 	0.0595123661826 	3.16770583148e-22
1.05218869156 	0.0450425420332 	-3.68435794151e-23
1.04489434318 	0.0341944062166 	-6.89478461026e-23
1.03884499496 	0.0258622279485 	-5.22306135526e-23
1.03400969918 	0.0190875905571 	-3.35750030829e-23
1.03030291366 	0.0133826840922 	-2.3196646823e-23
1.02758793495 	0.00858404225023 	1.45972449956e-24
1.03144260216 	-0.00655747533153 	-2.35469606989e-23
1.03522510644 	-0.0103903518839 	1.39938989148e-23
1.04060692527 	-0.0146927599357 	6.31773945711e-24
1.04812794383 	-0.0199901148747 	4.51465876789e-25
1.05805768143 	-0.026779320849 	-4.45912255098e-23
1.07129567637 	-0.0362381319588 	-3.73615329037e-24
1.08855779389 	-0.0500676164768 	-5.60223496156e-24
1.11078308245 	-0.0713617005402 	2.80847648454e-23
1.13978185244 	-0.105849108932 	-4.79186923814e-22
1.18007467461 	-0.163750921134 	-2.16385715658e-22
1.25690139643 	-0.264269741104 	1.98581930351e-22
0.0439846180287 	0.00138372960167 	-2.04838717189e-21
1.25496368916 	0.229879628052 	-2.56317210725e-22
1.16155418167 	0.142593734112 	3.51814659419e-22
1.1189619072 	0.098522700887 	9.51873333616e-22
1.09406187104 	0.0725072765558 	-2.81707675619e-22
1.07701136025 	0.054823626081 	-3.31850132067e-24
1.06417267687 	0.0418637429341 	6.8697918154e-24
1.05409317674 	0.0319057114183 	8.24089146856e-23
1.04620959181 	0.0241180716933 	-2.52210641444e-25
1.04003702004 	0.0177846647774 	4.82434825072e-23
1.03545068648 	0.012545654965 	4.49946918523e-23
1.03215408815 	0.00786710458846 	-1.58227261653e-23
1.03453804585 	-0.00539740969997 	7.21641039281e-25
1.03869701773 	-0.00805441405154 	-6.86629491159e-25
1.04472656323 	-0.0111880828874 	-1.19221525349e-23
1.05317299429 	-0.0147154715531 	1.02790129109e-23
1.06458765423 	-0.0190431167195 	1.11194447321e-22
1.08054015275 	-0.0248076270942 	2.02740202422e-22
1.10245312557 	-0.0331402528851 	-1.20568925841e-21
1.1330090227 	-0.0463009594988 	4.67838416685e-22
1.1761106242 	-0.0680102097978 	1.63577863346e-21
1.23815247912 	-0.103116801351 	-1.00478820904e-20
1.31103075442 	-0.142316834996 	2.62907172182e-20
0.079956914064 	-0.038590475068 	1.2898274984e-21
-0.000523179678115 	-2.81070534296e-05 	-4.19637617438e-22
0.191781477848 	0.0145606517027 	-5.6162184983e-23
1.2925460498 	0.0758906110017 	-3.51361966729e-20
1.1947446175 	0.0789696269288 	1.04177613847e-20
1.14146345865 	0.0694009751948 	9.44012029624e-22
1.1108589435 	0.0572533280012 	3.24642924229e-22
1.08994422591 	0.045686230229 	1.37957242972e-21
1.07443684202 	0.0357560517087 	-2.40198260636e-22
1.0622265333 	0.0275377731929 	-2.09714350507e-22
1.05281999407 	0.0208757308031 	-9.58938209923e-24
1.04548752855 	0.0154612478978 	-2.96347465327e-23
1.04002921306 	0.0108285141776 	-7.0138392609e-23
1.03615760545 	0.00699296701441 	-1.43938603496e-22
1.03689507202 	-0.00383192221139 	-3.19012364144e-24
1.0410172926 	-0.00543620915114 	-2.15074996226e-22
1.04727073562 	-0.00725388260095 	2.88671071518e-22
1.05593477687 	-0.00876259184582 	-2.6773981767e-24
1.0678502293 	-0.0100991929296 	-3.28794706169e-22
1.08454989969 	-0.0111370098859 	-3.61245851037e-22
1.10816893887 	-0.0119877097379 	1.0726522646e-21
1.14254123812 	-0.0131786155288 	3.96046878894e-21
1.19293347515 	-0.0164047758892 	9.77970948256e-22
1.2688762291 	-0.0282650854237 	3.87371740682e-21
1.31322948434 	-0.0475061589762 	2.74523017861e-21
0.306580098393 	-0.170027201901 	-3.75361827011e-21
-0.187375267358 	-0.264441311899 	-3.16549012275e-21
0.303717290175 	-0.174605691452 	-7.10424454369e-21
1.21055259648 	-0.0454873587282 	-2.80321884498e-21
1.17867508216 	0.024249899714 	-2.89976955301e-21
1.14395683998 	0.0417212185884 	-1.14096062779e-22
1.11885287337 	0.0408692136465 	-4.02679364777e-21
1.09875681819 	0.0347558275482 	-1.25612407091e-21
1.08219124787 	0.0278553513677 	3.25691433871e-22
1.06884051888 	0.0216362978015 	4.11772912322e-22
1.05827040561 	0.0164038489154 	4.60283264902e-24
1.0500095782 	0.0122350200549 	-5.38444019409e-22
1.0438301019 	0.00848275256743 	4.75328872378e-22
1.03960036231 	0.00555258937047 	4.20215602313e-22
1.03842536955 	-0.00228392936179 	-1.72087362915e-22
1.04229213648 	-0.00298565056501 	-5.23909965303e-22
1.04817911905 	-0.00350297968601 	-3.70230993284e-22
1.05627531727 	-0.00316449883573 	6.55736390015e-23
1.06726443115 	-0.00158872753355 	-6.8283544582e-22
1.08261454593 	0.00209006857414 	5.03330496531e-22
1.10414180233 	0.00907960028744 	-1.28055612659e-21
1.13509281921 	0.0216567781909 	-9.54548499561e-23
1.18801532974 	0.0407376278988 	-3.16627141603e-21
1.26399394965 	0.0675765540684 	-3.91954849127e-21
1.31824359294 	0.0931676928158 	9.04088152315e-21
0.595044669191 	-0.0799629561408 	1.37147659843e-20
-0.143026596667 	-0.299254888711 	6.35977264144e-22
0.151103393335 	-0.281748392495 	6.80597779867e-21
1.05434327035 	-0.0717915015639 	-1.29733070546e-21
1.1402003667 	0.0137417912158 	-1.82357329921e-21
1.13851352294 	0.0276047928197 	-1.34049348066e-21
1.12213689985 	0.0281903867881 	2.70516232656e-22
1.1045289974 	0.0238110244403 	1.65854962817e-21
1.08812655365 	0.0188806255424 	-6.12457846632e-22
1.07353198438 	0.0146328133646 	9.55159282645e-22
1.06225614717 	0.011030846059 	-1.12302249907e-22
1.05332819416 	0.00830905077697 	6.60307717494e-22
1.04671695288 	0.00576250704947 	8.50709082535e-22
1.0421926163 	0.00384251689851 	-1.12527376799e-23
1.03906899937 	-0.00107938183901 	5.10697664762e-22
1.04268544724 	-0.00106197561422 	4.84733466603e-22
1.04770479005 	-0.000531457533907 	-2.43479271657e-22
1.05459440225 	0.0011524466917 	-9.91369158374e-23
1.06349259425 	0.00490928121494 	3.27232157899e-22
1.07542173586 	0.0119136597005 	1.49948785002e-22
1.09170390466 	0.0258101271947 	-2.31829652858e-22
1.11197237087 	0.046347973978 	7.96766189052e-22
1.14688243912 	0.0867955925306 	2.90669033942e-20
1.20297270919 	0.15592960885 	2.97797341403e-21
1.25740087843 	0.269779507015 	1.21296501673e-21
0.824816285559 	0.286755133706 	6.11647685081e-21
0.0603225435949 	0.108802894803 	-3.40946220855e-22
0.0658153325102 	-0.0509716474256 	1.47283693227e-21
0.920408856453 	0.012407042828 	-1.90865707147e-22
1.13030567324 	0.0435998290157 	7.16359605783e-22
1.14120474069 	0.0279926420335 	1.69924637115e-20
1.12674812995 	0.0188404918578 	3.57706537866e-22
1.10990690691 	0.0118180949165 	2.5649643965e-21
1.09149620435 	0.00894615025588 	-3.12497402281e-22
1.07641380781 	0.00665264496748 	-7.94019756355e-22
1.06458115272 	0.00497671895574 	1.5501254416e-22
1.05523291608 	0.00394465448799 	3.53378336804e-22
1.04848987665 	0.00287639237396 	-7.68956185743e-22
1.04373004218 	0.00194198903646 	-6.56818569686e-22
1.03915145738 	-0.000139438635209 	-6.66649683445e-22
1.04230991172 	0.00029323481205 	-2.9253519637e-22
1.04636692031 	0.00129235042458 	-3.85771508856e-23
1.05174106713 	0.00353487336999 	-2.43482001222e-22
1.05814822556 	0.00814136936513 	2.96537976993e-22
1.06572747953 	0.0166444329101 	-8.97782850647e-22
1.07116930169 	0.0302287973457 	-7.7104076157e-22
1.0793627065 	0.0575610910009 	-1.09012547392e-21
1.0874381587 	0.10463884331 	3.24114856997e-21
1.09012961709 	0.189643668342 	4.49984225332e-22
1.10264561032 	0.344531049793 	-5.62687393773e-21
0.819525760763 	0.471700867788 	-4.30747145e-21
0.242821841466 	0.467486711572 	-8.83400082025e-22
0.208545973283 	0.30828205233 	9.7428225129e-23
0.907586717765 	0.119327404478 	-6.48574934718e-22
1.17726338963 	0.0699842562925 	3.07896423342e-22
1.16456850069 	0.0176844737688 	1.98474916671e-21
1.13719536358 	0.00389919455407 	-6.31929415535e-22
1.11211046297 	-0.000733439734672 	1.13229407145e-21
1.09246770323 	-0.00431088390865 	9.54697396978e-22
1.07759690163 	-0.00218591343723 	-1.60006954388e-21
1.06501566709 	-0.00148601071067 	3.33689264718e-22
1.05554280945 	-0.000622641241254 	1.1529648266e-22
1.04892531973 	-0.000314094588886 	8.4019668437e-22
1.04424473416 	-0.000119656231084 	3.8173002448e-22
1.0388517362 	0.000393609495875 	7.78945057623e-22
1.0415614385 	0.00101696241336 	-1.65774303073e-21
1.04486159748 	0.00186306865582 	1.0239214838e-21
1.04890743567 	0.00391894550839 	5.28134258758e-24
1.05219359536 	0.00744513821738 	1.53351714974e-21
1.05420908082 	0.0132534488337 	-3.69737135499e-22
1.05424549087 	0.0251858809929 	-1.255060228e-21
1.04697340842 	0.0456629141443 	5.99721559614e-23
1.0271006499 	0.0855057806291 	6.62690843374e-22
0.985043351928 	0.155918668047 	4.7094922341e-22
0.931923438386 	0.28907563145 	-2.60003272974e-21
0.697202972107 	0.44503762193 	3.96337060734e-23
0.302445725933 	0.548131505781 	-3.76325930027e-22
0.433822326428 	0.406928423424 	1.16619016558e-22
1.0874985669 	0.0743811013596 	-6.42109869578e-21
1.24065479372 	0.0150476398395 	4.9369907753e-22
1.19293722017 	-0.020186533651 	9.92028234039e-22
1.14171576923 	-0.0211795736446 	1.298511072e-22
1.11192240437 	-0.0200162855454 	-2.35454082047e-21
1.09025293679 	-0.0142433258338 	-7.75481238967e-22
1.07479658119 	-0.0110102087786 	2.03864977898e-21
1.06286149421 	-0.00849389211929 	-1.3967635332e-24
1.05412229801 	-0.00503308665549 	-1.93657593927e-21
1.04799332918 	-0.0035953373718 	3.26157413736e-21
1.04356817693 	-0.00182636702613 	-1.0865887593e-22
1.03845421424 	0.000743122618764 	-5.49276924439e-22
1.04094829493 	0.00132616725718 	-3.38090057326e-23
1.04372910458 	0.00224775701138 	1.69858824096e-21
1.04639016607 	0.00251433372239 	-8.169976998e-22
1.04884431659 	0.00372326006664 	1.20930316142e-21
1.04898707158 	0.00630017311675 	-1.26333500224e-21
1.04287628663 	0.0103896338088 	1.33135876069e-22
1.02744859932 	0.0182212017944 	-4.79582085998e-24
0.984275376334 	0.0372342568953 	-3.50793316128e-22
0.91631138021 	0.06489600638 	4.08451959183e-22
0.790291939818 	0.146058403508 	-4.70093770286e-22
0.495320430549 	0.334804848385 	-1.98497301629e-22
0.406212545513 	0.292331544329 	-2.36256686892e-22
0.762501573219 	0.0510870765835 	-3.48875701763e-21
1.16688477584 	-0.111471832425 	1.80520748774e-22
1.25806740448 	-0.107462999691 	-3.81666638321e-21
1.19128448014 	-0.0768906021064 	2.9947650936e-21
1.13108636215 	-0.0544830583476 	2.48392863708e-23
1.10470401745 	-0.039469012773 	4.79067213885e-22
1.08252471238 	-0.0271516071204 	-3.09604852902e-21
1.0690315191 	-0.0187764607977 	2.54418354085e-21
1.05829990742 	-0.0126168499645 	-4.45919489183e-22
1.05048239236 	-0.0092994597337 	-3.9350840373e-21
1.04604823427 	-0.00631456230502 	-1.00529513484e-22
1.04200858247 	-0.00331698221033 	7.69371341598e-22
1.03779237754 	0.00132218896158 	3.80504078004e-22
1.04044077931 	0.00146655678793 	-1.97587168968e-22
1.04299600535 	0.00138916328513 	-1.2120348178e-22
1.04683689735 	0.00119286755639 	1.39069146267e-22
1.04944913589 	0.000446687598478 	1.58164066759e-22
1.04974192525 	-0.00190461177186 	1.9804166119e-22
1.04494167032 	-0.00799501908433 	7.42111502752e-23
1.02824451518 	-0.0157687467936 	1.4789599223e-22
0.984589938479 	-0.0333347095551 	3.88129018409e-23
0.891727785893 	-0.0510208598405 	-1.7144789117e-22
0.66049467005 	0.00906748595348 	4.63663499965e-22
0.502132462366 	0.0113523294657 	3.81210063735e-22
0.606592960341 	-0.138127096248 	-5.79579729768e-22
0.930321825019 	-0.293982551044 	2.17022419874e-21
1.15109883527 	-0.28286829843 	2.41835297718e-21
1.19536824828 	-0.202074481326 	2.11564960902e-22
1.14132896479 	-0.12275849166 	-1.18943653947e-22
1.10309588613 	-0.0803542734809 	-1.12706693717e-22
1.08619309191 	-0.0544273944012 	1.29112514664e-22
1.07073533666 	-0.0362972937177 	9.90955785456e-22
1.0605506943 	-0.0244777781492 	3.42427105455e-22
1.05214011155 	-0.0163610171299 	2.58388585649e-22
1.04651048273 	-0.0108169299299 	-4.80587925835e-22
1.04300463208 	-0.00746644241799 	-1.25067628132e-21
1.03952041501 	-0.00446802398821 	-8.3148560946e-22
1.03722329856 	0.00172162216067 	-7.941619987e-22
1.03953861298 	0.00164969773444 	2.54845939361e-22
1.04359716593 	0.00197298140113 	2.08017763621e-23
1.04791819353 	0.000852779095548 	1.84212873122e-23
1.05259720842 	-0.00104709793606 	6.44864832267e-23
1.05836225981 	-0.00742165011211 	3.30944641411e-22
1.06140157154 	-0.0193093746478 	-4.3560353935e-22
1.06451369686 	-0.0433890285394 	7.98775370293e-24
1.04391807858 	-0.10910299577 	-4.12074513201e-23
0.909094006602 	-0.158257365743 	-2.53916449981e-24
0.671461008291 	-0.238798166753 	2.85435281083e-22
0.602843769441 	-0.311528346314 	2.02655279482e-24
0.712420496222 	-0.377381551314 	-4.21251817146e-22
0.92166549742 	-0.394771758934 	9.61104092417e-22
1.06320470692 	-0.337951679007 	4.00598116895e-22
1.08988926901 	-0.227836943066 	-4.05953408157e-24
1.06761992997 	-0.143484919361 	3.25201803934e-23
1.06564029596 	-0.091443435492 	4.57498850154e-23
1.06057339382 	-0.0606770797855 	1.13250992903e-21
1.05486255696 	-0.0392110162149 	-3.29793703802e-22
1.05026550421 	-0.0261439515545 	-5.07753763446e-22
1.04594028082 	-0.0175289106801 	6.91320842497e-23
1.04201872462 	-0.0116837470436 	-5.67082754449e-24
1.03874644416 	-0.00770857278147 	1.04360300954e-21
1.03667521145 	-0.00493770904672 	1.89191859721e-22
1.0364637462 	0.00137134293837 	-9.91833174628e-23
1.03973254244 	0.00243504315789 	-1.11614194642e-22
1.04445204921 	0.00256969493422 	4.28761362672e-23
1.05038102662 	0.00169163280413 	4.80062149997e-23
1.05858916022 	-9.80491112269e-05 	3.45590395127e-23
1.06860341576 	-0.0072082735676 	-1.89978215913e-22
1.08506330391 	-0.0185633900824 	-2.7534512275e-23
1.11317869355 	-0.048650686482 	3.84535564942e-22
1.11993841138 	-0.105167957372 	-1.28245130214e-22
0.999423422258 	-0.209227212548 	-2.10834308434e-22
0.787196003893 	-0.343830919544 	1.57732922272e-22
0.67182151073 	-0.429728454876 	0
0.716988328481 	-0.448559420818 	-1.1610219303e-35
0.856170368498 	-0.401451803897 	-1.8406059451e-24
0.956890592022 	-0.303678465321 	-2.93020166582e-22
0.989218087962 	-0.20009229476 	1.7320318858e-22
1.00919862549 	-0.125281865565 	2.56808429663e-22
1.02690786843 	-0.0806266821689 	-3.50640534522e-22
1.03576367401 	-0.0530068563147 	2.85405399854e-23
1.03789642524 	-0.0346956420528 	3.97379505114e-22
1.0389916847 	-0.0232452362044 	1.80421036786e-22
1.03841265505 	-0.0158935688906 	-2.35818179453e-24
1.03682795876 	-0.0105570639813 	1.96056534476e-22
1.03543911679 	-0.00687690879151 	-6.58961493727e-22
1.03400489857 	-0.00407727866514 	-6.19425287514e-22
1.0355904469 	0.0022852278454 	0
1.0389400412 	0.00364836703236 	0
1.04386609413 	0.00475690567952 	0
1.05060964393 	0.00502276412767 	0
1.06108870807 	0.00628768348093 	0
1.07578775146 	0.0033323092732 	0
1.10016902593 	-0.000333612581485 	0
1.14492518897 	-0.00893840727456 	0
1.18910660425 	-0.032194341177 	0
1.11857574173 	-0.095678609022 	0
0.905944352235 	-0.222486614843 	0
0.72995177863 	-0.340920823067 	0
0.697609144682 	-0.382882071912 	0
0.768329125506 	-0.341628972685 	0
0.852474972076 	-0.243296503103 	0
0.910458773671 	-0.15304589073 	0
0.959444477107 	-0.0972331209559 	0
0.996370225537 	-0.0613765843148 	0
1.01711969538 	-0.0387032420121 	0
1.02635733112 	-0.0251912322055 	0
1.03160061003 	-0.0171312301079 	0
1.03358631032 	-0.0117443351823 	0
1.03353997337 	-0.00809267523298 	0
1.03303078752 	-0.00553538803446 	0
1.03220317645 	-0.00341149273963 	0
1.03415244905 	0.00326283305311 	0
1.03725678812 	0.00512591983731 	0
1.04215397037 	0.00751814904481 	0
1.04840674467 	0.00975308358692 	0
1.05901320594 	0.014300792176 	0
1.07388076283 	0.0184750322357 	0
1.09618077465 	0.0258508287914 	0
1.13989869736 	0.0406111012051 	0
1.19845530554 	0.0618454439722 	0
1.18285734079 	0.0738757809257 	0
1.03134499891 	0.0195658590413 	0
0.839299266509 	-0.0869277209778 	0
0.726843244854 	-0.154014442971 	0
0.719758859592 	-0.155787413456 	0
0.770867655099 	-0.107394098376 	0
0.846760434835 	-0.0548255084031 	0
0.922148593011 	-0.0303231794908 	0
0.972802919067 	-0.0181870567644 	0
1.00336327157 	-0.0114349979212 	0
1.01942265288 	-0.00865160070963 	0
1.02735152447 	-0.00714110698499 	0
1.03080247029 	-0.00566164528752 	0
1.03166667296 	-0.00454443700059 	0
1.03144703319 	-0.00349917549952 	0
1.0307766679 	-0.00234054851955 	0
1.0323055289 	0.00394737888649 	0
1.03488337004 	0.00632067239791 	0
1.03913165424 	0.00970673530493 	0
1.04420561686 	0.0139323933612 	0
1.05284745718 	0.0206525479917 	0
1.06456438807 	0.0302631092813 	0
1.07986248644 	0.0452339942923 	0
1.10979081588 	0.070231424499 	0
1.15364804581 	0.114330844616 	0
1.15779962465 	0.174969974136 	0
1.07327562672 	0.202546988439 	0
0.919356784303 	0.17017695487 	0
0.77911666838 	0.125335241137 	0
0.729024720417 	0.0927888313914 	0
0.753516348327 	0.0831939986497 	0
0.82988090829 	0.0837045871112 	0
0.92005047429 	0.0676681713906 	0
0.976598393336 	0.0438554313549 	0
1.00694889784 	0.0233716612504 	0
1.0220762033 	0.0110766146701 	0
1.02851086954 	0.00400609582481 	0
1.03109591688 	0.000511914561787 	0
1.03140267572 	-0.00103022913642 	0
1.03079967353 	-0.00145751370664 	0
1.02991350387 	-0.00121283356491 	0
1.02998001803 	0.00421707593457 	0
1.03182915682 	0.00684060469636 	0
1.03482895037 	0.0106275317355 	0
1.03829200262 	0.0159044283133 	0
1.04366485101 	0.0236780113303 	0
1.05046586214 	0.0358852996396 	0
1.05822518982 	0.054356386783 	0
1.07146145479 	0.0824740494983 	0
1.08929497646 	0.132287452613 	0
1.08675065368 	0.205827185649 	0
1.03632682968 	0.275034780713 	0
0.924224903765 	0.303707585389 	0
0.807258379967 	0.294291539831 	0
0.761100499418 	0.263866510739 	0
0.77988374428 	0.231054656294 	0
0.859920896983 	0.195920046774 	0
0.959610258077 	0.145903100748 	0
1.0159378903 	0.0901778449835 	0
1.03453933627 	0.0479101767303 	0
1.03737056069 	0.024986346362 	0
1.03667459918 	0.0118388208718 	0
1.03515723567 	0.00499972540748 	0
1.03310297623 	0.00155256666521 	0
1.03129734706 	3.12618530367e-06 	0
1.02979544476 	-0.000400804114042 	0
1.02743430606 	0.00383674900849 	0
1.02846242815 	0.00624144965028 	0
1.02989166386 	0.00964854922953 	0
1.03122569629 	0.0146968034806 	0
1.0325446138 	0.0224252156373 	0
1.03341105947 	0.0350333175592 	0
1.03280666058 	0.0550103722378 	0
1.03050829442 	0.0852038253148 	0
1.02528351798 	0.134394522728 	0
1.00503930629 	0.20336705316 	0
0.966886724393 	0.285240930534 	0
0.894912437478 	0.343162912094 	0
0.817710496567 	0.350665619677 	0
0.792501265693 	0.327792080957 	0
0.820317284306 	0.289950564026 	0
0.914470370511 	0.23375034151 	0
1.02629105977 	0.158848031595 	0
1.0759874378 	0.0890775351585 	0
1.0734735302 	0.0468481907116 	0
1.0587253554 	0.0251565772512 	0
1.04851189796 	0.0122774856074 	0
1.04139080823 	0.0057684153598 	0
1.03623875944 	0.00211383328779 	0
1.03260163992 	0.000385572609922 	0
1.03011720732 	-0.000158616713342 	0
1.02534233987 	0.00264703043842 	0
1.02569723753 	0.0042849054804 	0
1.02576102203 	0.00659484610678 	0
1.02490372465 	0.0101357341821 	0
1.02220157327 	0.0160108938239 	0
1.01671057102 	0.0259132384622 	0
1.00668300282 	0.0431533768918 	0
0.991137372999 	0.0697034249645 	0
0.968499229981 	0.110630956861 	0
0.929612637745 	0.16767135767 	0
0.889655103941 	0.239791993636 	0
0.851789047138 	0.306871514295 	0
0.818203335672 	0.328826889189 	0
0.818843677937 	0.309694883445 	0
0.872573136134 	0.258617643236 	0
0.993723109698 	0.175458012767 	0
1.10556338865 	0.0929194312412 	0
1.12843660126 	0.0424053579834 	0
1.10079180506 	0.0224247463844 	0
1.07388949316 	0.0121568362728 	0
1.05713677485 	0.0053616662234 	0
1.04603007017 	0.0023762633385 	0
1.03882084494 	0.000410272163885 	0
1.03369074548 	-0.000315707753803 	0
1.03038042919 	-0.000438169846575 	0
1.02426706315 	0.00103299153289 	0
1.02435790418 	0.00157077168144 	0
1.02379099331 	0.00223458652298 	0
1.02170780326 	0.00305519645265 	0
1.01654486425 	0.00450108331671 	0
1.00635525977 	0.00700166350127 	0
0.988861850596 	0.0131206099994 	0
0.96355507271 	0.0240956894561 	0
0.927131776022 	0.0455169877823 	0
0.873651416374 	0.0806279978667 	0
0.827338649735 	0.12357915085 	0
0.80808947323 	0.170018698568 	0
0.816772430987 	0.191828775149 	0
0.863170112764 	0.171579494366 	0
0.957268895235 	0.109217620863 	0
1.08304534648 	0.0312910861347 	0
1.1587432185 	-0.0112340163553 	0
1.14598709868 	-0.0160826418905 	0
1.10485922197 	-0.00921803444442 	0
1.0766500556 	-0.0059513436619 	0
1.05869391403 	-0.0048015565959 	0
1.04659021715 	-0.00334188774134 	0
1.03908899756 	-0.00266419829022 	0
1.0336138747 	-0.00176808429327 	0
1.03015672076 	-0.00117196857605 	0
1.02428808127 	-0.000372306737407 	0
1.02464531665 	-0.000951854682721 	0
1.02448648524 	-0.00222021009563 	0
1.02307789623 	-0.00474726707052 	0
1.01870795604 	-0.00919560751195 	0
1.00883467957 	-0.016911890728 	0
0.989830607704 	-0.0282444734911 	0
0.959085710857 	-0.0412796654031 	0
0.911720255447 	-0.046569709419 	0
0.850113044596 	-0.0411779517604 	0
0.803022286427 	-0.0344558814949 	0
0.791374284568 	-0.0310322146496 	0
0.825695306434 	-0.0332146177765 	0
0.910231149027 	-0.0497289598437 	0
1.02188669034 	-0.0841025611555 	0
1.11893600482 	-0.106051071631 	0
1.15257934507 	-0.0893860319686 	0
1.12651816923 	-0.057439135513 	0
1.09140971162 	-0.0341632228489 	0
1.06956854433 	-0.021465464419 	0
1.05439644999 	-0.0139648267286 	0
1.04367151676 	-0.00894770889244 	0
1.03706080263 	-0.00592418472535 	0
1.03213882124 	-0.00360670228871 	0
1.02911248595 	-0.00220332552972 	0
1.02513792499 	-0.00131675432457 	0
1.0263252811 	-0.00275908607131 	0
1.02763391529 	-0.00558525271533 	0
1.02883076512 	-0.0106510639699 	0
1.02880662044 	-0.0194451299918 	0
1.02565580539 	-0.0347712666525 	0
1.012999123 	-0.0605797525593 	0
0.981736607622 	-0.0957838862947 	0
0.926184565591 	-0.126847971784 	0
0.859534697051 	-0.148253386811 	0
0.815361444358 	-0.168318494005 	0
0.806368862657 	-0.191346411475 	0
0.839028569542 	-0.209790760085 	0
0.920486490096 	-0.215636056634 	0
1.0177733591 	-0.205743697037 	0
1.08938861349 	-0.175362992991 	0
1.10819945738 	-0.126891696825 	0
1.08921630659 	-0.0803540730493 	0
1.06960739834 	-0.0500448475857 	0
1.05682896154 	-0.0318074789421 	0
1.04642600935 	-0.0201162853208 	0
1.03864022287 	-0.0127234674438 	0
1.03367306735 	-0.00813484140482 	0
1.02981429903 	-0.00496256799193 	0
1.02745093155 	-0.00295924714871 	0
1.02646180956 	-0.00177611859398 	0
1.02883259652 	-0.00353121093202 	0
1.03218168897 	-0.00674163071656 	0
1.0368354429 	-0.0122693188636 	0
1.04285811311 	-0.0215305702482 	0
1.05011262937 	-0.0378588614035 	0
1.05103089257 	-0.0661852282496 	0
1.02497737334 	-0.112565310941 	0
0.964041928466 	-0.163791459959 	0
0.891387132546 	-0.204552373328 	0
0.845078813325 	-0.238865842563 	0
0.832148049888 	-0.266885024597 	0
0.848877635719 	-0.285158291681 	0
0.904551548664 	-0.283379069765 	0
0.976286433523 	-0.251632249318 	0
1.03324170707 	-0.197692234392 	0
1.05323987168 	-0.138404249032 	0
1.04745461654 	-0.0903509132163 	0
1.04310971011 	-0.0577476679423 	0
1.03992228801 	-0.0360405633754 	0
1.03565550908 	-0.0221099354981 	0
1.03204975469 	-0.0135873755734 	0
1.02947718951 	-0.00839954792389 	0
1.02715278139 	-0.00503690304271 	0
1.02559839634 	-0.00294333770003 	0
1.02788761166 	-0.00153616504556 	0
1.03130148298 	-0.00290513711422 	0
1.03641950386 	-0.00519969185351 	0
1.04388577515 	-0.00914028292481 	0
1.05493737368 	-0.0153027603016 	0
1.07109223179 	-0.0264675445502 	0
1.08803968261 	-0.0448776790967 	0
1.07922288038 	-0.08287263013 	0
1.01932363905 	-0.143197055201 	0
0.934421754572 	-0.202306305144 	0
0.876313110262 	-0.248290665228 	0
0.853108277032 	-0.277107749411 	0
0.854000338879 	-0.290882415525 	0
0.882708495435 	-0.28181970619 	0
0.924871411143 	-0.239968105475 	0
0.970127451463 	-0.181015420657 	0
0.999049121557 	-0.123752959846 	0
1.00736159222 	-0.0813506005038 	0
1.0148879414 	-0.0519772025331 	0
1.02093443522 	-0.0310676138732 	0
1.02376783104 	-0.0183241100194 	0
1.02494537797 	-0.0108287494639 	0
1.02510615579 	-0.00647035518926 	0
1.0244897428 	-0.00374720845447 	0
1.02383478029 	-0.00213387053003 	0
1.02883007384 	-0.000558690787434 	0
1.03271567718 	-0.000991472054533 	0
1.03871942033 	-0.001608668818 	0
1.04743290773 	-0.00285419191595 	0
1.06081596221 	-0.00433521158721 	0
1.08067495978 	-0.00747324870149 	0
1.10750388568 	-0.0110348896111 	0
1.12249245524 	-0.0235766835364 	0
1.08382035574 	-0.0622368468003 	0
0.997656571033 	-0.122297241648 	0
0.920468184523 	-0.182396722248 	0
0.873600656298 	-0.217068036276 	0
0.851286457208 	-0.224643197353 	0
0.853162119876 	-0.205857934916 	0
0.873412770624 	-0.16438193755 	0
0.913429567762 	-0.117758240452 	0
0.953295899214 	-0.0743059795083 	0
0.975623535547 	-0.0446943107646 	0
0.992321759145 	-0.0263754962807 	0
1.00595901927 	-0.0140883934848 	0
1.01501914154 	-0.00777995291337 	0
1.01995361636 	-0.00438452149765 	0
1.02212529549 	-0.00257936558749 	0
1.02269398193 	-0.00142907445297 	0
1.02267030473 	-0.000817529813597 	0
1.02875415305 	0.000757264192552 	0
1.0324851805 	0.00141381035132 	0
1.038401121 	0.00256096056724 	0
1.04680113249 	0.00413985152997 	0
1.05979087096 	0.00718396952853 	0
1.07835477579 	0.0117108583892 	0
1.10454758938 	0.0205616861193 	0
1.13043369255 	0.0336026853534 	0
1.11919793432 	0.0367305383336 	0
1.05691301259 	0.0118324452366 	0
0.974100693216 	-0.0312467760061 	0
0.898807888734 	-0.0569159474238 	0
0.847239005159 	-0.0601794063781 	0
0.828505040649 	-0.0501351820444 	0
0.840033012441 	-0.033577648671 	0
0.878994912594 	-0.0157394766266 	0
0.925945775806 	0.00363587007497 	0