1.01415747384 	-0.00812912371408 	-1.93826285303e-21
1.01538715123 	-0.0127329547492 	-1.47349235093e-21
1.01683678129 	-0.0178996613645 	5.41894328696e-22
1.01848940943 	-0.0240452382504 	-3.1169519797e-24
1.01995841776 	-0.031259837057 	-5.97364686051e-22
1.02071303399 	-0.0399357906897 	-2.96963678092e-22
1.01970465128 	-0.0498296509488 	-3.38613084226e-22
1.01492138761 	-0.0595032327856 	-1.66532659343e-21
1.00481836357 	-0.0709224439148 	2.34318694611e-20
0.98501307955 	-0.0762334242367 	1.71063206598e-21
0.957041695694 	-0.0699039486875 	4.05802907076e-23
0.928592689322 	-0.0437669454448 	2.05009664519e-21
0.916428569 	0.000462745988862 	-2.96889988273e-24
0.931471069522 	0.0437580669064 	2.41753067398e-22
0.96135036269 	0.0677625940563 	-1.4406374226e-21
0.989091179901 	0.0723062397814 	1.64975968339e-21
1.00768995465 	0.0660548937666 	1.54968982716e-20
1.01669719145 	0.0547825758396 	-1.17792975829e-21
1.02043310679 	0.045685871656 	-1.10893720597e-21
1.02088135423 	0.0367121819294 	2.28532360257e-22
1.01979459829 	0.028926960255 	4.60166475966e-22
1.01817274509 	0.0224016345342 	9.37878562772e-24
1.01648953184 	0.0168408658358 	-2.50856062559e-22
1.01506489332 	0.0120575127024 	5.27382405889e-22
1.01389173437 	0.00771515502987 	5.29153939345e-22
1.01870023232 	-0.0086084995657 	6.81685944564e-22
1.02048656508 	-0.0134883177046 	1.35974174192e-21
1.02283579638 	-0.0192626740048 	8.68382433382e-22
1.02562692869 	-0.0261726900425 	-1.77437987495e-22
1.02862537857 	-0.0346205121253 	8.86502240787e-22
1.03112480913 	-0.0452539259928 	-3.89257613225e-22
1.03195804232 	-0.0584067793435 	6.95633532768e-22
1.02914284675 	-0.0748981651431 	2.24910514346e-22
1.01815184784 	-0.094265743455 	-7.13383727002e-22
0.992978080511 	-0.112417319366 	-3.01333785763e-21
0.945127380879 	-0.119248947113 	-4.1410974824e-21
0.879273416644 	-0.0865650519371 	1.03661581254e-20
0.844863704054 	0.00187941611765 	1.66971524511e-22
0.885251214516 	0.0875352378607 	9.33153393695e-21
0.952600474893 	0.115262055861 	-7.50312600767e-21
0.998806703759 	0.10515496592 	-1.69670391854e-21
1.02146689469 	0.0860764607212 	-3.62232903991e-22
1.029996619 	0.0673798805752 	-2.05934999864e-22
1.03157878897 	0.0524905664839 	-3.41776481448e-22
1.03009250079 	0.0409108437521 	1.86352846812e-22
1.02742076064 	0.0316670324655 	-4.73392174333e-22
1.02454287046 	0.0242485140045 	7.7480590402e-23
1.02194285365 	0.0181069199088 	-1.85996281446e-22
1.01979922487 	0.0128164074614 	-4.17347236981e-22
1.01818596899 	0.00822700064747 	-1.03808115729e-22
1.02333941494 	-0.00865386237181 	1.38111593353e-23
1.02587193776 	-0.0134361253752 	6.29339544487e-22
1.02926661733 	-0.0194459904534 	-5.86250501393e-22
1.03351112266 	-0.0266870538261 	-3.15921851832e-24
1.03859813155 	-0.0358072711887 	2.662861559e-22
1.04399874271 	-0.0478298201613 	2.51666703491e-22
1.04867659309 	-0.0638591197484 	-5.43660003398e-22
1.0505366989 	-0.0857276653565 	-1.40918378617e-21
1.04531784029 	-0.115591869123 	-1.4408136975e-22
1.02327322277 	-0.156770705 	1.16413096299e-21
0.958260616068 	-0.203806566411 	1.64368241893e-20
0.802858545411 	-0.20454806028 	-2.08702620636e-21
0.667675105517 	0.00777686023034 	-2.65171979737e-21
0.817898635581 	0.210264728702 	-3.57411840503e-21
0.972292823691 	0.197264370141 	9.10533880507e-21
1.03103234796 	0.144476115634 	-3.97750866256e-22
1.0477922425 	0.103212849826 	1.4525780113e-23
1.04956259231 	0.0755661160765 	2.17449999895e-24
1.04610967164 	0.0564977705947 	-9.45162611168e-23
1.04111342046 	0.0429968111314 	5.92651487848e-23
1.03601309866 	0.0328555727402 	-5.35553661357e-23
1.03148050389 	0.024963400617 	-1.11900288517e-24
1.02775318897 	0.0185398793949 	2.92915454199e-23
1.02480573427 	0.0130257237463 	-8.45319653298e-23
1.02263400233 	0.00841073784476 	-1.17581995462e-22
1.02792225147 	-0.00809917409223 	5.8147122136e-23
1.03117208233 	-0.012636022623 	-1.85148565016e-23
1.03565453942 	-0.0182746310428 	1.01050883538e-22
1.04159811231 	-0.0252081558597 	-7.56920708839e-23
1.04908815154 	-0.034085221385 	-1.06983622809e-22
1.05812945021 	-0.0463124008748 	-8.3356144878e-23
1.0683042903 	-0.0634404991507 	6.26418662426e-23
1.0786519704 	-0.088233900101 	-2.68431734275e-22
1.08699084927 	-0.125688250879 	5.45962421363e-23
1.08772726302 	-0.187045459447 	-3.73344780502e-22
1.06256549848 	-0.304415957983 	-2.17960644659e-23
0.846068974013 	-0.579528560848 	-2.36479759399e-21
0.889791345006 	0.587411854647 	2.61369390062e-22
1.08777153797 	0.287968353011 	-2.01844505692e-21
1.09709584963 	0.165848134091 	-2.20193301932e-21
1.0864371997 	0.107732674602 	-6.45877681195e-22
1.07376234673 	0.0757999328766 	8.82997312557e-22
1.06236240208 	0.0557636881696 	4.5745128767e-22
1.05276105026 	0.0421180614594 	-7.58238315261e-23
1.04489036143 	0.0320564718581 	-1.33092705942e-22
1.03856487969 	0.0243585705154 	-9.38296534605e-23
1.03360369533 	0.0180701633508 	-1.30655437099e-23
1.02984403224 	0.0127269998968 	-3.67119527471e-23
1.0271206419 	0.00820309519636 	6.04891285641e-24
1.03212307691 	-0.00692022706876 	-3.24402419324e-23
1.03598302189 	-0.0110379577188 	3.02424293611e-23
1.04144751876 	-0.0157418211182 	2.18980565023e-23
1.04901868028 	-0.021639882474 	1.29511427581e-25
1.05889771601 	-0.0292858528888 	-2.74736754288e-23
1.07179730221 	-0.0399604081956 	-2.63750420078e-24
1.08814788194 	-0.0553573289818 	-4.51659310056e-24
1.10844271593 	-0.0783832802369 	2.2862434981e-23
1.13387488396 	-0.114144066037 	-4.05997412308e-22
1.16865140131 	-0.171525793083 	-1.86994400681e-22
1.23856218262 	-0.268307968237 	1.82646398263e-22
0.0450017668649 	0.00142951981685 	-2.14900034495e-21
1.27299712257 	0.22622542567 	-2.74742737906e-22
1.17312233893 	0.135016046723 	3.86155635005e-22
1.12503109432 	0.0901987305175 	1.08113185359e-21
1.09648837554 	0.0653770264784 	-3.25853662512e-22
1.07742170111 	0.0494233561882 	-3.91370124905e-24
1.06364239371 	0.0380601835785 	8.60851629943e-24
1.05321749604 	0.0293446705008 	1.03222939188e-22
1.04528276404 	0.022429079981 	-3.27866191091e-25
1.03916875082 	0.0167115179651 	7.02453256847e-23
1.03466773109 	0.0118868215752 	6.79153913086e-23
1.03144661848 	0.00749796724012 	-3.02089912181e-23
1.03542834924 	-0.00565464146833 	1.0422215946e-24
1.03977381619 	-0.00853857385521 	-1.77009720335e-23
1.04605993588 	-0.0120605569043 	-2.4442273003e-23
1.05482187586 	-0.0162090173426 	8.83063243926e-24
1.06657829573 	-0.021519510721 	9.24810286796e-23
1.08271180331 	-0.0288875852414 	1.81686185316e-22
1.10429600347 	-0.0396433177443 	-1.06260379296e-21
1.13328349098 	-0.0561434698732 	4.42374073496e-22
1.17224164767 	-0.0817725056286 	1.44739759486e-21
1.22563813373 	-0.119426879246 	-8.9237501462e-21
1.28418013885 	-0.153543525325 	2.36601019437e-20
0.0737657515859 	-0.0210014275596 	1.21168020898e-21
-0.000690958550718 	0.0102222978665 	-4.33520520599e-22
0.197828210669 	0.0296764092348 	-6.11936726585e-23
1.31886053556 	0.0657643575231 	-3.81393991951e-20
1.20791031107 	0.0629446059278 	1.15424984274e-20
1.14568173903 	0.0554334979522 	1.0564409007e-21
1.11066939269 	0.047167295467 	3.84136241172e-22
1.08804728384 	0.0390361715616 	1.55441677509e-21
1.0721852557 	0.0315909918181 	-2.6893069792e-22
1.06017242286 	0.0250204622578 	-2.42778925356e-22
1.0511132256 	0.0193551339484 	-1.09436951256e-23
1.04411401482 	0.0145709966731 	-4.72408753786e-23
1.03891988266 	0.0103288378266 	-9.57690058464e-23
1.03523999426 	0.00672961508605 	-1.84534889701e-22
1.03792112564 	-0.00388892884925 	-9.42921195308e-24
1.04233381681 	-0.00559278157985 	-1.75675215684e-22
1.04903207463 	-0.00767914486321 	2.44637504936e-22
1.05831827023 	-0.00965866440458 	-2.26440842233e-24
1.07109813707 	-0.011909094251 	-3.09292149279e-22
1.08882584151 	-0.0146315352011 	-3.34022312964e-22
1.11341338919 	-0.0184522003413 	1.00056990737e-21
1.1478068535 	-0.0247293391378 	3.69963957992e-21
1.19557520309 	-0.0360338308526 	8.80546702718e-22
1.26068888308 	-0.0587550824607 	3.44763784049e-21
1.26813602658 	-0.079666816626 	2.27400502051e-21
0.203899409844 	-0.131086027366 	-3.17439467341e-21
-0.199400072329 	-0.154428192788 	-3.27432986061e-21
0.424424303279 	-0.1256191831 	-8.36073513066e-21
1.25553816544 	-0.0767350539821 	-3.1330605222e-21
1.18900266079 	-0.00642258344771 	-3.33776057939e-21
1.14175384461 	0.0212477328303 	-1.28168211652e-22
1.11349572221 	0.0288092594122 	-4.3979770278e-21
1.09332342467 	0.0280975630032 	-1.36770900279e-21
1.07775473151 	0.0243069813665 	3.5708752303e-22
1.06549499352 	0.0198306747911 	4.46606468174e-22
1.05582404457 	0.0155281035333 	5.30317372912e-24
1.04820545317 	0.0118206200589 	-6.18031365896e-22
1.04247438663 	0.00832371959111 	5.50676199243e-22
1.03853955135 	0.00548304561214 	4.91577188218e-22
1.039462413 	-0.00211909391413 	-1.56723481793e-22
1.04370186963 	-0.00270983176912 	-4.9116308915e-22
1.05016343972 	-0.00322816907751 	-3.32785064631e-22
1.05914910136 	-0.00301570128755 	6.64259352245e-23
1.07154095334 	-0.00191743569299 	-6.85688993699e-22
1.08898694918 	0.000603320459435 	4.96078409003e-22
1.11332342082 	0.00477989319669 	-1.25140459062e-21
1.14774726147 	0.0116832906513 	-9.66142814457e-23
1.20292943218 	0.0187961346216 	-3.01390988207e-21
1.28026046956 	0.0227165944839 	-3.6491630666e-21
1.28056199012 	0.0130835316785 	7.5841079821e-21
0.44597876561 	-0.194806816911 	1.00859933273e-20
-0.177227382641 	-0.408991678105 	5.51969172581e-22
0.364947750476 	-0.346196654211 	9.18917247888e-21
1.10140861809 	-0.150181991002 	-1.80422953002e-21
1.12839199604 	-0.034917307908 	-2.10232091494e-21
1.12298280724 	0.00310883733013 	-1.56367440493e-21
1.1092359563 	0.0176457261615 	2.73326357534e-22
1.09487651321 	0.0194311207921 	1.73499195502e-21
1.08151202732 	0.0174128036081 	-6.3661844778e-22
1.06915038111 	0.014369663487 	9.84129018532e-22
1.05935207322 	0.011247670671 	-1.17317091755e-22
1.05132772095 	0.00863842625775 	7.39246844604e-22
1.04529839815 	0.00609932512282 	9.32107369855e-22
1.04113909 	0.00402644485435 	-2.79842273072e-23
1.03992207747 	-0.000618323782219 	4.87551769437e-22
1.04391162635 	-0.000287480726474 	4.7461275838e-22
1.04954637471 	0.00061503776284 	-2.49520851557e-22
1.05745663659 	0.00267373055021 	-9.30720613702e-23
1.06812153081 	0.00679115314194 	3.23496681905e-22
1.08286513937 	0.0137211387937 	1.63463919702e-22
1.10415216883 	0.0265981531888 	-2.43298806812e-22
1.1316984088 	0.0431554885044 	8.29460323402e-22
1.17867900218 	0.0747610632373 	3.09649084222e-20
1.25953765254 	0.120751724229 	3.05269986092e-21
1.28337708442 	0.177855177204 	1.30351022591e-21
0.745394420904 	0.0611646163083 	6.23113968408e-21
0.0075835281473 	-0.208913640727 	-4.6156960623e-22
0.149332556844 	-0.287830168602 	1.45448399085e-21
0.929169418908 	-0.0825458861834 	-3.48769163744e-22
1.0801291989 	-0.000576986603441 	9.10086320501e-22
1.10576698077 	0.0131884560839 	1.54980251311e-20
1.10528043717 	0.0154676400701 	3.55673539241e-22
1.09666460731 	0.0131663843448 	2.44337272811e-21
1.08377649437 	0.0109975688068 	-3.0093582217e-22
1.0717408933 	0.00868323518447 	-8.20241853405e-22
1.06174676502 	0.00660439838208 	1.67739423635e-22
1.05340470338 	0.00512249054091 	3.66075093497e-22
1.04726072443 	0.00366484841124 	-8.26830566861e-22
1.04285335856 	0.00237843226235 	-7.17474424202e-22
1.03964499542 	0.000568651472918 	-6.91665731129e-22
1.04306569477 	0.00151559888376 	-2.86594738905e-22
1.04760521368 	0.00325752845295 	-5.46525988096e-23
1.05389143132 	0.00648145672544 	-2.55871743032e-22
1.06208430753 	0.0126295786426 	2.7571741183e-22
1.07234640415 	0.0229647874533 	-9.19696904147e-22
1.08374589555 	0.0379522831493 	-8.58299776599e-22
1.10185586892 	0.0666811197191 	-1.26615566797e-21
1.12624520214 	0.113576501549 	3.96960275653e-21
1.16690050817 	0.195948203202 	6.68213417016e-22
1.19760494995 	0.327847131947 	-7.64769377674e-21
0.883160694565 	0.397141601517 	-6.04362813487e-21
0.269047550326 	0.258922980185 	-1.07905584006e-21
0.161010292155 	0.0614618549696 	-8.38010729757e-22
0.807862437507 	0.0506530764529 	4.63262466258e-22
1.08478349645 	0.0669600168549 	-8.18167519936e-23
1.11531505147 	0.0308983552583 	1.15254500551e-21
1.11210904679 	0.0156869626075 	-4.88881463001e-22
1.09934580286 	0.00833086486137 	1.0324434082e-21
1.08585711589 	0.00253203415673 	9.65007543931e-22
1.07382884123 	0.00240925216809 	-1.54198514798e-21
1.06298701079 	0.00155819932584 	3.39236659094e-22
1.05431226737 	0.00133520309993 	1.11523150574e-22
1.04815188474 	0.000862272252867 	8.93357137639e-22
1.04371281384 	0.000534731631657 	4.08746510112e-22
1.03888242216 	0.00120239102965 	8.3067241541e-22
1.0415869769 	0.00251360129122 	-1.79032072774e-21
1.04502381516 	0.00452057329206 	1.10463102551e-21
1.04956342417 	0.00799272759228 	5.76206794665e-24
1.05389919948 	0.0138047135298 	1.81121995512e-21
1.05802544603 	0.0229974814987 	-4.39675460778e-22
1.06268539272 	0.0403084151551 	-1.64776345529e-21
1.06382537889 	0.0696328107127 	8.48258645636e-23
1.06127656824 	0.119589096971 	1.08072828735e-21
1.05200506044 	0.203444771805 	9.12041679725e-22
1.0492239457 	0.349224637279 	-5.77202692548e-21
0.845810760415 	0.470362140242 	7.63861347999e-23
0.403858524558 	0.504819703166 	-3.45707923152e-22
0.330327520952 	0.397778506039 	7.56888332837e-23
0.84523413241 	0.177425347198 	-1.78746088356e-22
1.15019662391 	0.0952751825699 	-2.01064143831e-22
1.15536087031 	0.0283549526502 	4.93638225224e-22
1.12592046812 	0.00741689719218 	1.03411002012e-22
1.10571964512 	-0.00316554936257 	-1.87291679722e-21
1.08721240687 	-0.00399659508888 	-7.14208346017e-22
1.07361266588 	-0.00470014077525 	1.88191956702e-21
1.06242187309 	-0.00461434973167 	-1.46752726181e-24
1.05394519327 	-0.0026868853841 	-1.97109967363e-21
1.04798890899 	-0.00214741692183 	3.36419811803e-21
1.04352713256 	-0.00102624801334 	-1.12445029365e-22
1.03795045945 	0.00143142820954 	-6.25161198245e-22
1.04019460615 	0.00252423222364 	-9.64352305837e-24
1.04261479074 	0.00431914322766 	2.01054188724e-21
1.04496098037 	0.00653488262294 	-1.01885439808e-21
1.04670455338 	0.0107327280004 	1.56611325e-21
1.04758839291 	0.0179602273463 	-1.72268147634e-21
1.04220938418 	0.0305879320805 	1.89819375433e-22
1.03122046934 	0.0513981027177 	-9.75732563041e-24
0.999931271558 	0.0908158858101 	6.39767009139e-22
0.951532811873 	0.152738600732 	-8.10537182218e-22
0.889384854862 	0.264103952898 	9.11399928676e-22
0.705424563934 	0.412949922215 	8.54585038644e-22
0.421265695693 	0.521338918241 	-2.18903220805e-22
0.525301138987 	0.410501621069 	-1.94257047119e-21
1.01290602292 	0.117742482285 	1.99996502642e-22
1.23141145498 	0.0272564539314 	-2.36259373298e-21
1.19814263579 	-0.0120163151248 	1.92062532268e-21
1.13557027432 	-0.0195471980383 	1.56669476616e-23
1.10872380673 	-0.0195050640291 	4.12885930741e-22
1.08546571039 	-0.0161236220002 	-2.78760654542e-21
1.07136542954 	-0.0121526148081 	2.36109254546e-21
1.05983490818 	-0.00875025740488 	-3.91523583762e-22
1.05147766886 	-0.00720998007995 	-3.91334011269e-21
1.04679985194 	-0.00496557807358 	-9.24589335475e-23
1.04244134399 	-0.00264805117233 	7.86496187756e-22
1.03698695545 	0.00163166479258 	4.72410771536e-22
1.03902187723 	0.00242289215244 	-2.61106586477e-22
1.04070245165 	0.00297923510533 	-1.77220288274e-22
1.04292448675 	0.00415695717754 	1.51725776405e-22
1.04395753649 	0.00591013989163 	1.56763339388e-22
1.04135071464 	0.00826076097201 	3.89540293616e-22
1.03256892558 	0.0110447422779 	9.65690120251e-23
1.01264302192 	0.0182219956841 	1.21546071711e-22
0.9644796948 	0.0331284566868 	-2.01801987328e-23
0.895179807845 	0.0598386383569 	-1.30983309359e-22
0.757202682622 	0.136387836397 	2.26411710053e-22
0.545100977847 	0.283601197818 	1.70914690849e-22
0.514730645737 	0.226940744016 	-6.92768228676e-22
0.81008777731 	0.0149173581643 	2.43421083485e-21
1.14904683502 	-0.120647262851 	2.72714212536e-21
1.24407249764 	-0.109899364318 	2.67519227403e-22
1.1915391869 	-0.0756805866914 	-7.73815566282e-23
1.12598359453 	-0.0550304205564 	-1.43431185865e-22
1.1006873188 	-0.0381431430842 	1.15308039793e-22
1.079651249 	-0.0287703166075 	9.21916755471e-22
1.06579562247 	-0.0194806460136 	3.53733403295e-22
1.05574526414 	-0.0138469150589 	2.74067115345e-22
1.04850823509 	-0.00922062773883 	-4.60496888622e-22
1.04440451613 	-0.00662836531541 	-1.25240180328e-21
1.04031218943 	-0.00410743461786 	-8.45475888553e-22
1.03618132914 	0.00164765467704 	-1.13844369789e-21
1.03795090804 	0.00189783316122 	3.68014709753e-22
1.04075204078 	0.00209378243993 	1.13117233937e-23
1.04301443625 	0.00187753441557 	4.00389515565e-23
1.0444141459 	0.00071306628234 	-8.3509835488e-25
1.04407269948 	-0.00300777237632 	2.4581495881e-22
1.03866592746 	-0.0110558542055 	-2.62635526454e-22
1.01994047765 	-0.0228269373712 	1.26933596535e-23
0.972750423345 	-0.0511759167428 	-3.71205975101e-23
0.854758969795 	-0.0700609660826 	1.92984651014e-23
0.660699521658 	-0.0322438428708 	5.99705435327e-22
0.580202076027 	-0.051446419764 	9.76189531661e-25
0.67399164945 	-0.161490882448 	-5.05290880883e-22
0.919358014719 	-0.270597405515 	1.56135591537e-21
1.12496253261 	-0.277358639646 	5.61220487872e-22
1.18704206912 	-0.211042843311 	3.32030032577e-24
1.13783136836 	-0.125695212741 	3.5042065105e-23
1.09671030807 	-0.0831452119852 	4.22153918565e-23
1.08126710148 	-0.0547998165945 	1.21842946754e-21
1.06773523375 	-0.0370539610329 	-3.7882143638e-22
1.05715827905 	-0.0246960335344 	-5.19957053818e-22
1.05044064565 	-0.016843223623 	6.67845540716e-23
1.04451873284 	-0.0115176295364 	-6.32116856552e-24
1.04035921719 	-0.00761003055535 	1.04712445776e-21
1.0376304144 	-0.00504385638129 	2.05598030233e-22
1.03565289772 	0.00101294698762 	-2.10289987844e-22
1.03833445269 	0.00165268503613 	-2.24685310491e-22
1.04180455062 	0.00142166434814 	9.49901372234e-23
1.04544953182 	-8.62783189887e-07 	6.0925425311e-23
1.0494255442 	-0.00376034232204 	4.91229562669e-23
1.0529237317 	-0.0117214848548 	-2.07894890372e-22
1.05492309639 	-0.0252750030126 	-3.23958709564e-23
1.05319151554 	-0.0596622576985 	5.70431762467e-22
1.0173702588 	-0.1168002478 	-4.23735566511e-22
0.88350343647 	-0.191891801977 	-3.98088485657e-22
0.722941078672 	-0.269325622069 	4.9315894998e-22
0.667139388697 	-0.335478057112 	0
0.751650478124 	-0.379331633283 	-1.93874746397e-35
0.921421851118 	-0.378457572643 	-3.07355960739e-24
1.04623999381 	-0.319893455428 	-6.20657829243e-22
1.07962166893 	-0.222168833851 	3.69725037115e-22
1.06988772425 	-0.137850951141 	5.42700188538e-22
1.06041671924 	-0.0876065032638 	-5.87889332782e-22
1.05587932163 	-0.058570717302 	3.92615790745e-23
1.05082048207 	-0.0388311821158 	4.81351382073e-22
1.04631363921 	-0.0259189361698 	1.8392187419e-22
1.04265387843 	-0.0178548611416 	-1.38950171081e-23
1.03949418286 	-0.0118699922879 	1.91189959068e-22
1.03684884157 	-0.00767906383604 	-6.58575632615e-22
1.03484389157 	-0.00454069916897 	-6.17118028127e-22
1.03511329326 	0.0013860841308 	0
1.03814477722 	0.00199382213902 	0
1.04234768394 	0.00190747522934 	0
1.04808383472 	0.00061244039979 	0
1.05586925384 	-0.00240383489705 	0
1.06613075013 	-0.010934185183 	0
1.08293185961 	-0.0247007585087 	0
1.10715708492 	-0.0577632757327 	0
1.10016869956 	-0.120599848471 	0
0.972590341229 	-0.223023805857 	0
0.790090719119 	-0.332666040932 	0
0.704716139932 	-0.39988348874 	0
0.745444862899 	-0.422111191901 	0
0.867404723633 	-0.389068376327 	0
0.960565886422 	-0.301192022157 	0
0.992456282133 	-0.20161515072 	0
1.01110597889 	-0.127707708836 	0
1.026550402 	-0.081898074809 	0
1.03442190066 	-0.0539038502754 	0
1.03619881266 	-0.0352662131891 	0
1.03697032749 	-0.0234616124249 	0
1.03643830249 	-0.0160473620776 	0
1.0350447053 	-0.0107217259096 	0
1.03375892073 	-0.00706388610241 	0
1.03254867498 	-0.00430548499871 	0
1.03435530658 	0.00210134442782 	0
1.03759826252 	0.00301902952622 	0
1.04243169787 	0.00385835985084 	0
1.04910636806 	0.00374169682598 	0
1.05968928762 	0.00414866132637 	0
1.07475266622 	0.000753082330553 	0
1.10026017451 	-0.00401937463332 	0
1.14443047472 	-0.0130793934062 	0
1.17712339417 	-0.0390986035506 	0
1.08913885274 	-0.110905917259 	0
0.892612313341 	-0.229802368268 	0
0.753642788362 	-0.328522374824 	0
0.732808698319 	-0.363758406224 	0
0.789533697373 	-0.328779341169 	0
0.856240854561 	-0.239557449816 	0
0.908469915266 	-0.153081745558 	0
0.956373138203 	-0.0979618228316 	0
0.991920749301 	-0.0617164904581 	0
1.01306192167 	-0.0385153934173 	0
1.02326776414 	-0.0247915190638 	0
1.02890235037 	-0.016654467797 	0
1.03121950612 	-0.0113451264939 	0
1.03148598631 	-0.00783240888054 	0
1.03115824306 	-0.00539583724899 	0
1.03050962706 	-0.00340226324153 	0
1.03325913514 	0.00293235133802 	0
1.03639455318 	0.00451888648327 	0
1.04141230758 	0.00669686866749 	0
1.04777202962 	0.0086353210221 	0
1.05873098074 	0.0125819475893 	0
1.07411182658 	0.0165590143141 	0
1.09761703554 	0.023559447234 	0
1.1422666481 	0.0378975410487 	0
1.19601124795 	0.0583644231942 	0
1.16629360231 	0.0601222488608 	0
1.01465359271 	-0.00284233076788 	0
0.846454898292 	-0.0994287624804 	0
0.752047197984 	-0.152320733397 	0
0.742978722 	-0.146436227257 	0
0.782637618188 	-0.100647467661 	0
0.848845927865 	-0.0535221634369 	0
0.919147911286 	-0.0284146050201 	0
0.967431264385 	-0.015751233597 	0
0.997888204991 	-0.00956855450579 	0
1.01512023707 	-0.0071302060827 	0
1.02396078961 	-0.00603943629749 	0
1.02807182779 	-0.00491935550173 	0
1.02936391576 	-0.00403986869975 	0
1.02944561765 	-0.00314085119285 	0
1.02898037886 	-0.00213610082338 	0
1.03155715816 	0.00364788706003 	0
1.034221366 	0.00587258352098 	0
1.03863021405 	0.00914647886208 	0
1.04390945958 	0.0131861215409 	0
1.05293228463 	0.0196239752191 	0
1.06516845661 	0.0289614711345 	0
1.08147147866 	0.0435957237743 	0
1.11263136676 	0.0685943980069 	0
1.15561972776 	0.112350312799 	0
1.15240947527 	0.167190444436 	0
1.06336121072 	0.185481177244 	0
0.918621724557 	0.152229018083 	0
0.791532679638 	0.114813928773 	0
0.745623785233 	0.0899540373745 	0
0.765955349313 	0.0818783983531 	0
0.833254773359 	0.0819784152472 	0
0.916266054328 	0.0694419184483 	0
0.971621146846 	0.0478304216195 	0
1.00243160878 	0.0269102868859 	0
1.01838013545 	0.0137041916494 	0
1.02556606313 	0.00590766764577 	0
1.02862071617 	0.00184843454494 	0
1.02926061116 	-0.000104442440153 	0
1.02895139211 	-0.000824119945063 	0
1.02827834024 	-0.00080948019134 	0
1.0292208032 	0.00400291280994 	0
1.03111787909 	0.00653750362662 	0
1.03420129709 	0.0102491451197 	0
1.03777160268 	0.0153771304155 	0
1.04342545943 	0.0230868232462 	0
1.05067480986 	0.035223143155 	0
1.05905937188 	0.0536774332601 	0
1.07345365145 	0.0823410564015 	0
1.09258768301 	0.132215243023 	0
1.08632898235 	0.202569705979 	0
1.03105535741 	0.265400495496 	0
0.923598547774 	0.290129304908 	0
0.816221375579 	0.281201616056 	0
0.774112524457 	0.253182739144 	0
0.789725538567 	0.222096829442 	0
0.859426486563 	0.190618195672 	0
0.951659442295 	0.146906918696 	0
1.00992410299 	0.0947249931933 	0
1.03156251922 	0.052178403007 	0
1.03557833971 	0.0279617117263 	0
1.0350981459 	0.0140625075268 	0
1.03361151238 	0.00660602173041 	0
1.03161330796 	0.00266813889539 	0
1.02987352633 	0.000759076095182 	0
1.02845582473 	7.7520769604e-05 	0
1.02673844964 	0.00362297715207 	0
1.02778476722 	0.00593104366055 	0
1.02927494166 	0.00929465781425 	0
1.0306564916 	0.0143070820466 	0
1.03221740338 	0.0221764191554 	0
1.03351581629 	0.0351138571957 	0
1.03329206834 	0.0556225946149 	0
1.0321864414 	0.086438047849 	0
1.02945400465 	0.135825373587 	0
1.00863353193 	0.203549339072 	0
0.967015222903 	0.280335581095 	0
0.897565620957 	0.332631654313 	0
0.827350441059 	0.338176971112 	0
0.804747349695 	0.316000752002 	0
0.827615661922 	0.280341972031 	0
0.908308452549 	0.230319263093 	0
1.01251208195 	0.16273116624 	0
1.06792073295 	0.0947861463444 	0
1.07135240776 	0.0509386316398 	0
1.05804943509 	0.027954806205 	0
1.0477449928 	0.0143550074075 	0
1.04052560567 	0.00724359730721 	0
1.03528945186 	0.00314321637542 	0
1.03158289062 	0.00108694504077 	0
1.02905565939 	0.000295595818369 	0
1.02481411411 	0.0024254254383 	0
1.02521018808 	0.0039894559391 	0
1.02535506608 	0.00632675676338 	0
1.02453740641 	0.00995181722167 	0
1.02198289274 	0.0160588361881 	0
1.01674624134 	0.0264457175971 	0
1.00706423781 	0.0444110458435 	0
0.99288764169 	0.0713669747773 	0
0.973068422425 	0.112703832632 	0
0.935690133959 	0.169913388921 	0
0.89554019028 	0.239123727704 	0
0.85954509773 	0.3011102095 	0
0.829151258932 	0.320487211139 	0
0.829453358711 	0.30294548705 	0
0.873659619935 	0.257978780888 	0
0.979183696577 	0.183086344015 	0
1.08841652444 	0.103027768903 	0
1.12151630113 	0.0489401420752 	0
1.09993536564 	0.0260330257418 	0
1.07363313037 	0.0147219751559 	0
1.05659913722 	0.00726166669939 	0
1.04537580459 	0.00371535102497 	0
1.03806320014 	0.00139069626292 	0
1.03290858044 	0.000338396809335 	0
1.02953146033 	-3.41041524933e-05 	0
1.02385938939 	0.000886290328563 	0
1.02395268008 	0.00138209394102 	0
1.02338360912 	0.0020721807192 	0
1.02124153668 	0.00294569026609 	0
1.01600580953 	0.00454570844449 	0
1.0057461358 	0.00741648567251 	0
0.988606323526 	0.0142698564822 	0
0.964729614707 	0.0261905498241 	0
0.930881786909 	0.0490802234568 	0
0.880081887316 	0.0857660491201 	0
0.835789123782 	0.128288062041 	0
0.818352707941 	0.17355120546 	0
0.82650266414 	0.195651024053 	0
0.867317974788 	0.179498959638 	0
0.949650144232 	0.123952339332 	0
1.0650347124 	0.0485582069335 	0
1.14571941898 	0.00047514449014 	0
1.14393467757 	-0.0108173065527 	0
1.10595529825 	-0.00625437475541 	0
1.0771816778 	-0.00374246047052 	0
1.05871912846 	-0.0031409963208 	0
1.04633414341 	-0.00213800833605 	0
1.03858578146 	-0.00175763545958 	0
1.03302313985 	-0.00116221866488 	0
1.02948705647 	-0.000788662929794 	0
1.0239114548 	-0.000478141581483 	0
1.02420154092 	-0.00114719240486 	0
1.02394198575 	-0.0024884705227 	0
1.02234762933 	-0.00507590847749 	0
1.01770121919 	-0.00951608763574 	0
1.00734459737 	-0.0170377268359 	0
0.988143490506 	-0.0276052277141 	0
0.958268397805 	-0.0385255376517 	0
0.913244839264 	-0.0408353867055 	0
0.855106269906 	-0.0327906108483 	0
0.810531673204 	-0.0251038220671 	0
0.799789858263 	-0.0199007333675 	0
0.831519645147 	-0.0191396633891 	0
0.908652088663 	-0.0316723715398 	0
1.01291483974 	-0.063932145557 	0
1.10756956799 	-0.0912594901088 	0
1.14754025294 	-0.0826806306636 	0
1.12836946513 	-0.0547743979423 	0
1.09382866792 	-0.0322604790818 	0
1.07096084675 	-0.0199591210773 	0
1.05514234207 	-0.0128109853697 	0
1.04397603612 	-0.00805509268436 	0
1.03698359568 	-0.00523316253202 	0
1.03184459833 	-0.0031185097119 	0
1.02867941511 	-0.0018641529079 	0
1.0248054464 	-0.00151886932666 	0
1.02592112202 	-0.00309985246089 	0
1.02713177336 	-0.0060466341932 	0
1.02813342668 	-0.0112311083414 	0
1.027770715 	-0.020147576347 	0
1.02373479375 	-0.0355040510853 	0
1.00952147842 	-0.0609629428774 	0
0.977648219882 	-0.0936711400568 	0
0.924315743787 	-0.120636549441 	0
0.862103888329 	-0.13885984659 	0
0.821006476116 	-0.15723635734 	0
0.812273708736 	-0.17836222552 	0
0.842241346929 	-0.19485958117 	0
0.918475024556 	-0.199477286502 	0
1.01337528219 	-0.191440355245 	0
1.08607943732 	-0.167516719997 	0
1.10832878253 	-0.124897068111 	0
1.09212741191 	-0.0799713313401 	0
1.07206857631 	-0.0493731696321 	0
1.05840394421 	-0.0311636600057 	0
1.04737197746 	-0.0195524507804 	0
1.03913871503 	-0.012212997078 	0
1.03383185373 	-0.00770529285118 	0
1.02975662826 	-0.00463826626064 	0
1.02723355398 	-0.00273708380506 	0
1.0263026122 	-0.00204125513575 	0
1.02864670996 	-0.00394340706923 	0
1.03194673437 	-0.00730474971724 	0
1.0364824545 	-0.0130258330535 	0
1.04222386479 	-0.0225949933475 	0
1.04850949212 	-0.0392773915896 	0
1.04650158994 	-0.0682803559512 	0
1.0177477447 	-0.113461777558 	0
0.958543531599 	-0.16034926735 	0
0.891343392107 	-0.197195644504 	0
0.848898581884 	-0.229347719435 	0
0.836480271254 	-0.255578240446 	0
0.851435033428 	-0.272835950515 	0
0.904129003066 	-0.271357559916 	0
0.976350820588 	-0.24339256421 	0
1.03536351883 	-0.19473400018 	0
1.0559895875 	-0.138582227387 	0
1.0501980996 	-0.0913276495049 	0
1.04505614727 	-0.0582708950817 	0
1.04114854777 	-0.036314644562 	0
1.03631968816 	-0.0221515272939 	0
1.03233548149 	-0.0134680110145 	0
1.02952979707 	-0.00822499393314 	0
1.02706657396 	-0.00486540821951 	0
1.02542258895 	-0.00281566149661 	0
1.02792781826 	-0.00175641217172 	0
1.03134771067 	-0.00327018788576 	0
1.03644620308 	-0.00576301897679 	0
1.04388399782 	-0.00998429784207 	0
1.05477850492 	-0.016625601852 	0
1.07032239256 	-0.028467527524 	0
1.08421281359 	-0.0483883279595 	0
1.06989232747 	-0.0883153041118 	0
1.00915984676 	-0.146494103964 	0
0.930772694123 	-0.200357408511 	0
0.878457786239 	-0.242365497707 	0
0.85660833063 	-0.268909218449 	0
0.856815409419 	-0.282083733418 	0
0.885137257039 	-0.274781228337 	0
0.929208456129 	-0.237217478834 	0
0.975441392842 	-0.1815236671 	0
1.00311223319 	-0.125403432437 	0
1.0101582937 	-0.0832993909601 	0
1.01657091169 	-0.0534422201444 	0
1.02183282806 	-0.0320117237037 	0
1.02413975767 	-0.0187869050261 	0
1.02501017052 	-0.010981783221 	0
1.02501672423 	-0.00646658152633 	0
1.02431209837 	-0.00367223653981 	0
1.02362242849 	-0.00204929657592 	0
1.02895919636 	-0.000754379765521 	0
1.03285765277 	-0.00133637919158 	0
1.03888470232 	-0.00218387902286 	0
1.04769633402 	-0.00373933078831 	0
1.06114926746 	-0.00572696671072 	0
1.080999778 	-0.00962366185033 	0
1.10613374494 	-0.0147044835638 	0
1.11498248175 	-0.0310750953995 	0
1.07119166971 	-0.0727782654744 	0
0.988323451242 	-0.131299030792 	0
0.917956854175 	-0.18707154871 	0
0.875144002957 	-0.218380921874 	0
0.85478526222 	-0.225188305425 	0
0.858706890102 	-0.208415350597 	0
0.88042993945 	-0.168711959225 	0
0.919690792192 	-0.122103939584 	0
0.957563541826 	-0.0783920001583 	0
0.978100451142 	-0.0480215941751 	0