1.01395580441 	-0.00774351223524 	-7.16178111185e-22
1.01523518178 	-0.0120489259624 	-5.66082893697e-22
1.01678800891 	-0.0168566217552 	2.47221981053e-22
1.01865624438 	-0.0224895280611 	-3.06638008877e-23
1.02050038031 	-0.0291360235558 	-2.32882359039e-22
1.02183118702 	-0.037145963959 	-1.70453110928e-22
1.02164505965 	-0.0464808890193 	-1.89542083868e-22
1.01813827705 	-0.0562598008204 	-1.10527542934e-21
1.00925494804 	-0.0680040804479 	1.67619423297e-20
0.990385863013 	-0.0748245504657 	1.42179501755e-21
0.962171240586 	-0.0707603047427 	7.93814140296e-23
0.931810405402 	-0.0468657238489 	1.92282848244e-21
0.91638974206 	-0.00364928114362 	-5.27255676608e-24
0.928142529872 	0.0407071400312 	2.02430791814e-22
0.956156246892 	0.066984485822 	-1.65663076095e-21
0.983704491552 	0.0737897644158 	2.00995044872e-21
1.00326870657 	0.0690227273129 	2.19529047593e-20
1.0135097077 	0.0580449171274 	-1.80387525897e-21
1.01854403511 	0.0490565836655 	-1.93377685216e-21
1.0197959956 	0.0395015634979 	4.115258311e-22
1.01928184164 	0.031045355275 	1.06411983612e-21
1.01803227494 	0.0239477451747 	-4.51167509739e-23
1.01655727813 	0.0178749179438 	-5.49596186573e-22
1.01523091822 	0.0127355619631 	1.33405079972e-21
1.01410467752 	0.00809504411223 	1.34380043016e-21
1.01822216191 	-0.00816448450687 	1.97215173852e-22
1.0199446971 	-0.0126888914539 	4.23593798612e-22
1.02224585964 	-0.0179378674856 	1.35167338344e-22
1.0250778733 	-0.024074270101 	-6.61150161281e-23
1.02825942419 	-0.0315226005443 	3.72529564035e-22
1.031317208 	-0.040924594593 	-1.44030861077e-22
1.03322339172 	-0.0528136153308 	2.18266492451e-22
1.0320286091 	-0.0682645789991 	1.10261055838e-22
1.02369639402 	-0.0878477052299 	-4.45475604133e-22
1.0007873823 	-0.107788988481 	-2.01574625315e-21
0.953891317015 	-0.118695141506 	-3.21473433442e-21
0.885424275572 	-0.0909787585421 	9.69259936874e-21
0.844769089032 	-0.00487980599291 	1.67287469934e-22
0.878944275514 	0.0832464344223 	1.00884700018e-20
0.943774598023 	0.115965552449 	-9.30371049715e-21
0.991009524836 	0.109915375422 	-2.6372817606e-21
1.01601460952 	0.0926045721443 	-6.25411840457e-22
1.02716874728 	0.0740512030861 	-4.2046235462e-22
1.03036666728 	0.0581009334358 	-1.05765810657e-21
1.02994712509 	0.0452469940813 	5.13198073586e-22
1.02782189867 	0.034764653938 	-1.12011837959e-21
1.0251173736 	0.0263405982917 	2.02362332465e-22
1.02254965746 	0.0194289508498 	-9.93659124895e-22
1.02035364548 	0.0136132166768 	-1.24262318482e-21
1.01867285491 	0.00867066073466 	-6.90109080641e-23
1.0225697501 	-0.00829447174959 	4.50004911285e-24
1.02485589308 	-0.0127394093799 	4.70872831101e-23
1.02797821782 	-0.0181331723128 	5.67115786428e-24
1.03196483872 	-0.0244395610576 	1.31717313608e-24
1.03687531637 	-0.0322113190623 	4.43526706081e-23
1.04248384102 	-0.0423412085371 	-8.38003847443e-23
1.04814099757 	-0.0560596225375 	1.20159874761e-22
1.05232672484 	-0.0756225518673 	6.75980501752e-23
1.05113715532 	-0.104259827688 	7.47805019336e-23
1.03445465854 	-0.147121005751 	4.87806768546e-22
0.974468676228 	-0.20157740296 	1.06438567579e-20
0.816467833606 	-0.214419571068 	-1.97868658981e-21
0.667461608466 	-0.00890897577326 	-2.66379574089e-21
0.804017247451 	0.200669585443 	-3.94326880061e-21
0.956044316264 	0.199777823209 	1.42935486331e-20
1.01990590616 	0.154309456615 	-9.89045845524e-22
1.04207826452 	0.114653188922 	-8.1724217725e-23
1.04788054153 	0.0857121308489 	1.84149423053e-21
1.04672809728 	0.0642970651993 	7.05895259339e-22
1.04267986267 	0.0484794004377 	-2.74774236162e-22
1.03776794338 	0.0364409612489 	-2.74725436274e-22
1.03305000829 	0.0271995967759 	4.0670354044e-24
1.02905685576 	0.0198497076964 	6.61049761311e-22
1.02582997141 	0.0137198314671 	-6.95590155157e-22
1.02341600428 	0.00876728954907 	-7.0333959043e-22
1.02691123966 	-0.00799976576037 	-6.40799999904e-24
1.02972958166 	-0.0122960219837 	4.16898675112e-23
1.03363781589 	-0.0174080684402 	5.40936766682e-24
1.03885589059 	-0.0234268714578 	1.11119059465e-22
1.04556413701 	-0.0307988845673 	1.4105205234e-22
1.05407133264 	-0.0405727410564 	8.50387130243e-23
1.06459739325 	-0.0541432418555 	-5.46368283105e-22
1.0772106661 	-0.0744341426312 	-4.82536365508e-22
1.09133950606 	-0.107548269775 	9.19867761351e-22
1.10307302297 	-0.168034789076 	-2.01789114565e-21
1.0933149369 	-0.294902277236 	1.83212617716e-21
0.88373112801 	-0.601915280659 	8.28399386142e-22
0.851695438321 	0.565918050906 	1.72821252884e-21
1.05716221023 	0.297995924356 	-4.0937007033e-23
1.08197418687 	0.185097688745 	8.07789391104e-23
1.08232052336 	0.1259552798 	1.40608310011e-23
1.07536025556 	0.0895976699456 	2.90733246329e-22
1.06617818121 	0.0650171511295 	-1.53393802208e-22
1.0568769704 	0.0478124792413 	9.67835232834e-23
1.04844492245 	0.0353066923395 	1.54335298416e-22
1.04131996805 	0.0261111285496 	9.5196410452e-23
1.03563129679 	0.0189216030479 	-1.09406077275e-22
1.03129308807 	0.0130595104337 	2.98298364292e-23
1.02813767186 	0.00829651007266 	-1.6994217336e-23
1.03105034803 	-0.00721412001223 	3.20254595826e-23
1.03431152917 	-0.0113396916749 	-7.6696247544e-23
1.03888636725 	-0.0158412760153 	-7.80793250389e-23
1.04518333401 	-0.0211268011168 	1.93962163681e-24
1.05343377587 	-0.0274695492222 	-1.15665244149e-22
1.06449744406 	-0.0355084551908 	-8.0438575526e-24
1.07944377916 	-0.0462319645465 	-9.11868277726e-24
1.1003199805 	-0.0618353420409 	4.52233606157e-23
1.13156366455 	-0.087407492358 	-7.17432354121e-22
1.18268434384 	-0.134853582946 	-3.27651810641e-22
1.28568306261 	-0.231035620907 	2.74104291621e-22
0.0366428087182 	0.00141937639197 	-1.55936581348e-21
1.22642890079 	0.263994418521 	-1.73587319836e-22
1.15952315583 	0.171894915878 	2.20477060572e-22
1.12771229583 	0.116938163687 	5.50594383284e-22
1.10482045133 	0.0818299862569 	-1.51354362938e-22
1.08624166152 	0.0584177958485 	-1.5956459685e-24
1.0709844908 	0.0424188843745 	1.20009134624e-24
1.05868911576 	0.031100652402 	1.45593975843e-23
1.04911499202 	0.0228909462775 	3.86399291738e-28
1.04172888421 	0.0165801831655 	-3.63021255282e-23
1.03634048727 	0.0115680355859 	-4.45787275143e-23
1.03252089138 	0.00719785761912 	4.39701619703e-23
1.03461507989 	-0.00646809741339 	-6.67570104546e-24
1.03825973112 	-0.00977125132355 	1.02889133081e-22
1.04340860375 	-0.013629621242 	4.95352321377e-23
1.05042274098 	-0.0178592849868 	1.74159788105e-23
1.05957872982 	-0.0227036789887 	1.98659559592e-22
1.07203029036 	-0.0281107763639 	2.86503161311e-22
1.08904309559 	-0.0340601978464 	-1.63826005972e-21
1.11393799336 	-0.0406325947948 	4.68580850458e-22
1.15323868782 	-0.0482018434736 	2.11521322078e-21
1.22186609866 	-0.0578361036977 	-1.29677261055e-20
1.33639236614 	-0.0685731992752 	3.6443384694e-20
0.162204613457 	-0.0443193542004 	1.99696433222e-21
-0.000165326110679 	-0.0146047995282 	-4.34550011466e-22
0.098750202433 	0.00556179888057 	1.20943702872e-22
1.26781634797 	0.151357952993 	-2.43186606957e-20
1.21247705814 	0.124610441826 	7.72997684436e-21
1.16522770778 	0.0887832204035 	7.50536056759e-22
1.13025175971 	0.0624084949593 	1.04431652271e-22
1.1033539396 	0.0443679012076 	9.58794303766e-22
1.08286133343 	0.0322240684904 	-1.58652599922e-22
1.06714130362 	0.0237583724244 	-9.88686180032e-23
1.05548416936 	0.0176512336752 	-4.97932027266e-24
1.04674625991 	0.0129704617262 	3.49430456094e-23
1.04041867536 	0.00907482799486 	3.42175700058e-23
1.03604572691 	0.00590118471863 	3.20202274529e-23
1.03770569452 	-0.00529976012788 	3.50615910368e-23
1.04149894151 	-0.00791503653272 	-5.70939985514e-22
1.04703229506 	-0.0110283465773 	6.46696848428e-22
1.05441968066 	-0.014144312794 	-5.06322883822e-24
1.06379100144 	-0.0174672843891 	-4.68573839062e-22
1.07599885148 	-0.0203467664718 	-4.60504040184e-22
1.09207482897 	-0.0216968559701 	1.27678427454e-21
1.11425044651 	-0.0188791092903 	4.26712910513e-21
1.14768338474 	-0.00723251618979 	1.1144434017e-21
1.20695545906 	0.0222699073353 	4.13594226144e-21
1.29292098149 	0.0839686432537 	4.18441418514e-21
0.455249586819 	0.0572594183199 	-6.08155010816e-21
-0.19112532524 	0.0306495461066 	-3.32485470858e-21
0.148927958986 	0.0600338300456 	-4.21008968452e-21
1.23245725794 	0.0861703909486 	-1.56685522631e-21
1.24419543644 	0.0746318536014 	-2.76458589142e-21
1.19026338575 	0.0494378413534 	-8.93154749964e-23
1.14722432529 	0.0341107310338 	-3.74878238412e-21
1.11458341947 	0.0245142345862 	-1.0383934385e-21
1.09049763349 	0.0184473983932 	2.49138206026e-22
1.07271033919 	0.0142112837051 	2.77511211246e-22
1.05967789471 	0.0110253710423 	1.96961138888e-24
1.05017640825 	0.00847464225989 	-1.81845191311e-22
1.04329253893 	0.0060268871478 	1.18159131784e-22
1.03873902367 	0.00408221929445 	6.83931541122e-23
1.04018827942 	-0.00396466394718 	-4.26208809617e-22
1.04409278865 	-0.0059728441036 	-1.10793898542e-21
1.04974898798 	-0.00823887120228 	-7.42967818894e-22
1.05723445338 	-0.0104002786095 	1.06627702038e-22
1.06624159906 	-0.0125969026018 	-8.80539940741e-22
1.07750676079 	-0.0139580928832 	5.52621301279e-22
1.090074392 	-0.0128480705832 	-1.3575311695e-21
1.10424027862 	-0.00525146544302 	-8.49412642148e-23
1.12247752754 	0.0184307653865 	-2.58287895393e-21
1.1385076828 	0.0703190546375 	-3.17994660411e-21
1.15383688924 	0.197379015634 	6.53840192437e-21
0.505318973168 	0.353594321511 	1.24604891431e-20
-0.18295512729 	0.387203827445 	5.3369336709e-22
0.319594412586 	0.211454293081 	7.84851322131e-21
1.22785842372 	0.0336877348385 	-1.53531279279e-21
1.27336676171 	0.0112115076486 	-2.217693466e-21
1.20441811459 	0.000853697720245 	-1.81371982597e-21
1.15247482262 	-0.000407139698883 	3.10299643767e-22
1.11775647976 	0.00143500990781 	1.57300440354e-21
1.0927256702 	0.00273678287295 	-5.5685126323e-22
1.07431798965 	0.00370967829481 	7.28899742903e-22
1.0612093491 	0.00391730012903 	-6.78052694708e-23
1.05171572309 	0.00366643482087 	2.78438822612e-22
1.04490286509 	0.0028937985791 	3.63969244013e-22
1.04040414277 	0.00220588145795 	3.73446843858e-23
1.04187676674 	-0.0025250387094 	1.20591984029e-21
1.04597022565 	-0.00386947340371 	9.94782198167e-22
1.05160644996 	-0.00534506925898 	-3.9067606457e-22
1.05915213343 	-0.00673214971128 	-1.51039158856e-22
1.06780245359 	-0.00831940914791 	4.96139750932e-22
1.07777398517 	-0.009413817598 	1.82534474018e-22
1.08743209574 	-0.00891167088773 	-2.11955551606e-22
1.0919368472 	-0.00495815749463 	5.44137377761e-22
1.08967241902 	0.00922511502571 	1.72469006286e-20
1.06318890395 	0.0500253795867 	1.15283475619e-21
0.96452973956 	0.165797985188 	1.84519114478e-22
0.301038481043 	0.394395844889 	1.8523590578e-21
-0.0363507144593 	0.407649539676 	-4.9394408221e-22
0.62681499943 	0.109019496368 	2.0826636002e-21
1.26700461775 	-0.0880992330737 	-2.31434285051e-21
1.28059589493 	-0.0769233638127 	3.03457372151e-21
1.19449794233 	-0.0545349116872 	3.01991408036e-20
1.14346436143 	-0.0337813197021 	5.86057045114e-22
1.11248172385 	-0.0224575818087 	2.83065562807e-21
1.08850220424 	-0.0120413142736 	-2.6768460759e-22
1.07189630748 	-0.00622315225485 	-5.60562001042e-22
1.0600129274 	-0.00267432028909 	9.56985456585e-23
1.05132029179 	-0.000773508425506 	2.15767275617e-22
1.04519102766 	0.000113660362723 	-3.50144630103e-22
1.04088730808 	0.00046970811009 	-2.36193781864e-22
1.04288355822 	-0.00095776029951 	-1.48944058922e-21
1.04702295316 	-0.00152443557908 	-5.68440937882e-22
1.05265345127 	-0.00229730960813 	-1.17106976414e-22
1.06039818688 	-0.00299265832365 	-3.77851768316e-22
1.06953677373 	-0.004140464522 	2.00144591969e-22
1.0791127312 	-0.0046924422832 	-9.86859016043e-22
1.08743584252 	-0.00892635805337 	-8.18707030838e-22
1.09107278409 	-0.0125306062663 	-6.29128401029e-22
1.07917531807 	-0.0180486054828 	1.06937472887e-21
1.03162823553 	-0.0274389973831 	-2.33073974097e-22
0.802147399678 	0.035072727926 	7.82738882044e-22
0.174491438567 	0.159141738262 	6.56726667197e-22
0.232256509815 	-0.0232346347537 	-1.27984199181e-21
0.877421931742 	-0.251431591757 	5.9197279341e-21
1.24491132013 	-0.267920002488 	-4.10708285567e-21
1.22431163393 	-0.173558360392 	1.88275694865e-21
1.15438953169 	-0.105015575161 	4.17762706291e-21
1.11984599475 	-0.0643444941613 	-1.01721033109e-21
1.0946757145 	-0.0382117526309 	1.07031807816e-21
1.07862968702 	-0.0244252962462 	8.74852751998e-22
1.06633821309 	-0.0140346048057 	-1.34464230135e-21
1.05649487323 	-0.00775940256425 	2.12940172817e-22
1.04927619675 	-0.00421976154922 	4.62782294413e-23
1.04420433952 	-0.00214373345365 	3.90782548205e-22
1.04049182649 	-0.000963741363511 	1.46619627712e-22
1.04297342852 	0.00044624325862 	1.78191650634e-21
1.04729675859 	0.00103287344444 	-3.37292850664e-21
1.05288728295 	0.00104779914617 	1.84820755834e-21
1.06053590228 	0.00199387325446 	7.17495300429e-24
1.07032179284 	0.000594105464288 	2.16869329372e-21
1.08113791874 	-0.00187159698811 	-5.29569295769e-22
1.09437387797 	-0.00594357449708 	-1.32898577864e-21
1.10415303223 	-0.018568980253 	7.12756570108e-23
1.10826869678 	-0.045242700383 	2.76020539575e-22
1.06263181453 	-0.103436115326 	-4.88652110244e-22
0.722441161801 	-0.126470810409 	3.01238804759e-21
0.299000240302 	-0.235460387676 	4.50731662647e-23
0.450376935144 	-0.393977086144 	-3.79125659123e-22
0.904425455778 	-0.461142665542 	1.08310126961e-22
1.13256818648 	-0.362270424535 	-8.0525220749e-21
1.11364504305 	-0.215140246042 	9.95320990443e-22
1.09379240398 	-0.127624648796 	1.13572776553e-21
1.08327422156 	-0.0774933027014 	1.18474677736e-22
1.07331711949 	-0.0468472375348 	-2.13769212184e-21
1.06420055448 	-0.0279252691329 	-5.87908059442e-22
1.05750270343 	-0.0174434159937 	1.52418842184e-21
1.05146259236 	-0.0105981800383 	-1.05267037442e-24
1.04615442208 	-0.00616157082562 	-1.07699832801e-21
1.042364767 	-0.00351695820513 	1.59058409827e-21
1.03944084669 	-0.00180605550756 	-2.4100587646e-23
1.04230058744 	0.00198372965282 	-1.32702390697e-21
1.04668698506 	0.00374686200355 	5.80987375308e-23
1.05142965028 	0.0052463989001 	3.66851430007e-21
1.05949956378 	0.0054686929275 	-1.65035149214e-21
1.07042883602 	0.0064998270098 	2.29001977818e-21
1.08356400544 	0.0072425883409 	-2.36965013379e-21
1.1031566746 	0.00386662402405 	2.6155198321e-22
1.12493103355 	-0.00671801248526 	9.35112500889e-25
1.16677337526 	-0.0388314468806 	7.46431739353e-22
1.15360827236 	-0.1086083797 	-7.57433630459e-22
0.82107454899 	-0.248336573409 	8.65642567238e-22
0.455152696607 	-0.465133066479 	8.68810324892e-22
0.508794281113 	-0.52481871603 	-2.37636573078e-22
0.825554303516 	-0.454142771879 	-1.37475002607e-21
0.969221086006 	-0.331151484368 	-5.19893763987e-25
1.00142673866 	-0.197131418347 	-1.5970649693e-21
1.02892676851 	-0.116657209356 	1.23511797364e-21
1.04523478792 	-0.0706152842806 	1.82320198414e-23
1.04939319994 	-0.0435744282123 	3.1409967172e-22
1.05094978947 	-0.0262084246817 	-1.9659932965e-21
1.0482674902 	-0.0159443051697 	1.55409557611e-21
1.04571909595 	-0.00988639424109 	-3.26281663868e-22
1.04292635383 	-0.00622828878493 	-1.94863410147e-21
1.04042506175 	-0.00394014012592 	-4.58902080295e-24
1.03808338448 	-0.00218351989911 	3.21235908249e-22
1.04053207616 	0.00357039681621 	1.12218323278e-21
1.04493492887 	0.00548278750483 	-6.03400179877e-22
1.04931439319 	0.00724871608577 	-3.78713336675e-22
1.0572569046 	0.0108067337351 	3.62326015585e-22
1.06762760736 	0.0137924035614 	2.52203202602e-22
1.08338737261 	0.0195816205608 	9.66667859737e-22
1.10461311472 	0.0215249091436 	1.31400473666e-22
1.13554741865 	0.0260449083502 	-1.33288264142e-22
1.20320219506 	0.0194835128641 	-5.12047481624e-23
1.23589221499 	0.00174947986964 	2.4224004871e-22
1.0391840606 	-0.0778146230535 	-1.70443254359e-21
0.621018371401 	-0.343540344128 	-1.69026708508e-21
0.503774210917 	-0.44605626757 	-6.18404193811e-22
0.672636972177 	-0.368712974034 	1.23161335427e-22
0.839219354679 	-0.213697114786 	1.58602302756e-22
0.919766379334 	-0.131775197619 	-1.01546509556e-22
0.976253334882 	-0.0765135724503 	-4.28150714288e-23
1.01608120953 	-0.045424219001 	7.44990894921e-23
1.03168726106 	-0.0280779362868 	9.23411471452e-23
1.04023511626 	-0.0181167904973 	3.92840412521e-22
1.0426715908 	-0.0115767027544 	1.65681718911e-22
1.04168773823 	-0.00759260258512 	6.54162135053e-23
1.03997430654 	-0.00493230786136 	-2.00371467477e-22
1.03852584535 	-0.00365147182037 	-4.99984644516e-22
1.03674276368 	-0.00213290429104 	-2.72451248903e-22
1.03831264116 	0.00464878462106 	-3.09329969312e-21
1.0413492396 	0.00690905988648 	1.01273482664e-21
1.0461926237 	0.0102741494495 	-1.2071690276e-23
1.05324398045 	0.0145160910928 	7.64555841156e-23
1.0615945735 	0.0212295563086 	-5.82268389674e-22
1.07614845617 	0.0307993774198 	-3.89802744104e-22
1.09376578818 	0.0428778847746 	1.31786956676e-21
1.11929825685 	0.0656798745246 	3.4011642248e-23
1.19122476604 	0.0914555751336 	7.10884397889e-23
1.23055401024 	0.148690637789 	-3.08324050385e-22
1.12368083907 	0.158746082483 	-2.55322001421e-21
0.852310398849 	0.0617248027614 	1.93940791961e-23
0.611134654624 	-0.096291166 	-4.56645752327e-22
0.584554921441 	-0.171615617036 	-2.95047627975e-22
0.71121176262 	-0.097026727704 	6.14497545388e-23
0.860331987505 	-0.0116474709676 	-2.62721796493e-23
0.949692582555 	-0.0046090006224 	-4.94289148411e-24
1.00535770199 	-0.00388051227564 	7.55760695487e-24
1.02800323554 	-0.00351060627571 	-2.44695748105e-22
1.03699033558 	-0.00524939408236 	1.65626613711e-22
1.04011675265 	-0.00522030924201 	1.98282225428e-23
1.04034859754 	-0.00437080590355 	1.95029555935e-23
1.03898872624 	-0.00346301372548 	2.82339468671e-23
1.03689317676 	-0.00268865952874 	2.5183310464e-22
1.03552081812 	-0.00208889379148 	8.88430097813e-23
1.03563163226 	0.00450468681532 	-6.64919519682e-22
1.03810789347 	0.0076434157263 	-7.09285995842e-22
1.04182639306 	0.0117656324603 	2.07930168852e-22
1.0462067924 	0.0173968560059 	-2.19035874385e-23
1.05241361563 	0.0252315202532 	2.01077847274e-22
1.06146430078 	0.0372770429342 	5.59751819379e-22
1.07178711361 	0.0555041719049 	4.70935701782e-23
1.08915747859 	0.0829714359862 	-7.8339192383e-22
1.12391619538 	0.134283702043 	7.90143155175e-22
1.1464687602 	0.215978795349 	5.431375391e-22
1.09010539546 	0.292467961137 	-8.9792285862e-22
0.927142945288 	0.304858305273 	0
0.737319376275 	0.253128639071 	1.77249946103e-36
0.650789215526 	0.180190965412 	2.81000122439e-25
0.699520949271 	0.132009373596 	5.20412277527e-22
0.840396379297 	0.109389722263 	-4.2575210689e-22
0.963499126135 	0.0754043046782 	-4.46712183819e-22
1.01378319486 	0.0386928229022 	6.24721786468e-22
1.03324536067 	0.0174947000793 	-3.61857668234e-23
1.04064861079 	0.0078328311841 	-2.7439647933e-22
1.04191303203 	0.00198902948348 	9.42729919871e-24
1.04105325174 	-0.000759893588036 	5.37413330201e-23
1.03925844953 	-0.00175227848831 	4.75295141626e-23
1.03689484499 	-0.00174795154509 	-8.04788367428e-23
1.0348724502 	-0.00112558311782 	-7.93195172831e-23
1.03317591874 	0.00471596190543 	0
1.03485451437 	0.00771930840869 	0
1.03711199899 	0.0118178870068 	0
1.0397520987 	0.0176788568905 	0
1.04275801824 	0.0256587111023 	0
1.04625235242 	0.0385739310046 	0
1.05001455413 	0.0582135881108 	0
1.05291500821 	0.0866691669777 	0
1.05783375726 	0.136765604792 	0
1.05947409099 	0.218385954884 	0
1.02698793996 	0.312537121261 	0
0.911575806333 	0.372669802951 	0
0.763940394856 	0.378284770782 	0
0.700908634724 	0.342478589087 	0
0.751294389441 	0.287743382164 	0
0.89514442591 	0.215112424654 	0
1.02244141796 	0.134703413207 	0
1.05866875727 	0.0697080704137 	0
1.05820525475 	0.0314264261116 	0
1.05324008131 	0.0150125393414 	0
1.04850234752 	0.00522810753504 	0
1.04413668322 	0.000700126463963 	0
1.04025730127 	-0.00113495424572 	0
1.03697355775 	-0.00156145125207 	0
1.03446733594 	-0.0011344096223 	0
1.03078268798 	0.00413231949224 	0
1.03169558372 	0.0066503660528 	0
1.03264460369 	0.0099709532647 	0
1.03347653464 	0.0149004190382 	0
1.03317699106 	0.022000601904 	0
1.03118408308 	0.0333522548278 	0
1.02719909481 	0.0515317869313 	0
1.01605819414 	0.0795143336755 	0
0.99600938976 	0.124785220925 	0
0.969271583149 	0.193992763904 	0
0.934176138923 	0.290443246658 	0
0.854250542811 	0.375670741036 	0
0.75955240338 	0.403365031629 	0
0.735843892474 	0.379511502458 	0
0.817280630744 	0.31600128838 	0
0.989148561024 	0.212493500648 	0
1.11054744665 	0.114018629201 	0
1.1157818112 	0.0543672873042 	0
1.08762915263 	0.0250615327469 	0
1.06734947812 	0.0111981441953 	0
1.05544262456 	0.00275463294866 	0
1.04703945643 	-0.000228519476922 	0
1.04108979561 	-0.00166813049629 	0
1.03684899986 	-0.00180107179417 	0
1.03393713838 	-0.00142724323752 	0
1.02876690105 	0.003011941043 	0
1.02922002671 	0.00468724554407 	0
1.02923359653 	0.00668773440389 	0
1.02834349051 	0.00952758824027 	0
1.02502809497 	0.0139376752556 	0
1.01789885086 	0.0206899547116 	0
1.00477799367 	0.0326405621814 	0
0.980874714607 	0.0533940041295 	0
0.943309023679 	0.086078277369 	0
0.890646436887 	0.135385295324 	0
0.838359433351 	0.210981929323 	0
0.788380530646 	0.288752751257 	0
0.755900613715 	0.317109373591 	0
0.788950021885 	0.280107935377 	0
0.919705628861 	0.187044076089 	0
1.0982186618 	0.0808736819179 	0
1.17882830832 	0.0203974709375 	0
1.14657185162 	0.00327470109792 	0
1.10146696477 	1.85079723175e-05 	0
1.07504138424 	-0.00260311907998 	0
1.0591685714 	-0.00445959110641 	0
1.04821793761 	-0.00380402847879 	0
1.04147988766 	-0.00370197324838 	0
1.03653258276 	-0.00282083855551 	0
1.0333646927 	-0.00203291856952 	0
1.02746629998 	0.00153397088734 	0
1.02779441459 	0.00214248965492 	0
1.02749357909 	0.00247208902235 	0
1.02586051402 	0.00242998950962 	0
1.02119893161 	0.00200970798119 	0
1.01152671015 	0.00065143108381 	0
0.992912536918 	-0.000671877321174 	0
0.961705713308 	-0.000588041057367 	0
0.912740351687 	0.00551021713014 	0
0.842245270757 	0.0230605308007 	0
0.781439821666 	0.0561976901938 	0
0.75349230263 	0.0869641544848 	0
0.776623898509 	0.089202584308 	0
0.874668400889 	0.0443844818836 	0
1.02776279717 	-0.0357680706516 	0
1.1611856669 	-0.0829264822135 	0
1.18725619746 	-0.0711780819367 	0
1.13798300677 	-0.0449115888998 	0
1.0956371803 	-0.0273733740278 	0
1.07290769564 	-0.0185061760024 	0
1.05755701236 	-0.0132278774238 	0
1.04674131804 	-0.00899968682581 	0
1.04039165033 	-0.00666547731589 	0
1.03538289522 	-0.00439448744079 	0
1.03231813797 	-0.00282134599535 	0
1.0272055503 	0.000188233768531 	0
1.0279307591 	-0.000216635242175 	0
1.02838919925 	-0.00154803344923 	0
1.02812599905 	-0.00443484756163 	0
1.02569745644 	-0.0100301925758 	0
1.01947361749 	-0.020329495713 	0
1.00465845396 	-0.0377849048563 	0
0.974143707743 	-0.0651345574462 	0
0.917516195005 	-0.0923269845787 	0
0.836823033453 	-0.109913027002 	0
0.776113233989 	-0.11831930635 	0
0.761196519116 	-0.134240536536 	0
0.8083868087 	-0.157810666183 	0
0.926708418196 	-0.18317603397 	0
1.05563530132 	-0.199425070626 	0
1.1359713229 	-0.172881072239 	0
1.14175636419 	-0.116585503478 	0
1.10505198078 	-0.0713947131491 	0
1.07732822669 	-0.0453273518625 	0
1.06226206168 	-0.0298524464018 	0
1.05071515999 	-0.0199131195767 	0
1.04226193618 	-0.0133196231384 	0
1.03717790966 	-0.00907840796098 	0
1.03300069208 	-0.0057738652351 	0
1.03048145909 	-0.00353959851708 	0
1.02776160989 	-0.000534345636509 	0
1.02947140932 	-0.00149795093761 	0
1.03170741436 	-0.00383125461976 	0
1.03456515814 	-0.00837308994717 	0
1.03744707938 	-0.0166107327993 	0
1.04018991704 	-0.0317825260351 	0
1.0388339924 	-0.0580545821571 	0
1.01702634109 	-0.103757105883 	0
0.956624510877 	-0.158250391044 	0
0.867288737048 	-0.203023626186 	0
0.803899948214 	-0.236974548917 	0
0.790014038498 	-0.268706668808 	0
0.826607787587 	-0.293750119769 	0
0.920581271022 	-0.297490280184 	0
1.01551031717 	-0.265604122698 	0
1.06926235211 	-0.201853903053 	0
1.07962707605 	-0.133652725346 	0
1.06512095307 	-0.0838973967183 	0
1.05389804623 	-0.0542996294841 	0
1.04697342618 	-0.0351618105814 	0
1.0406574186 	-0.022695182395 	0
1.03573360613 	-0.0149018174873 	0
1.03254322228 	-0.00981406159558 	0
1.02979454331 	-0.00622228622966 	0
1.02809448618 	-0.00378668441124 	0
1.02857044946 	-0.000580820006225 	0
1.03141809268 	-0.00150847116369 	0
1.03558849322 	-0.00368659202725 	0
1.04155840327 	-0.00784774129366 	0
1.05005700315 	-0.0147834389358 	0
1.06252271957 	-0.0279959890988 	0
1.07849917337 	-0.0498812163141 	0
1.07543132272 	-0.0923376668911 	0
1.01752325794 	-0.160089939686 	0
0.915474956041 	-0.227336996419 	0
0.840440603349 	-0.277549138983 	0
0.818230083687 	-0.312011541158 	0
0.835395543054 	-0.331917722442 	0
0.892699173116 	-0.323923900609 	0
0.951924884983 	-0.27145467534 	0
0.994891354978 	-0.198425451603 	0
1.01892494738 	-0.133427065769 	0
1.02410528887 	-0.0855071884523 	0
1.02775084483 	-0.0546172736307 	0
1.02983501105 	-0.0338857723187 	0
1.02970457647 	-0.0209872026644 	0
1.02891714719 	-0.0132424893004 	0
1.02796520295 	-0.00844240063541 	0
1.0267312559 	-0.0052989872594 	0
1.02581896789 	-0.00320427464912 	0
1.0291189687 	-0.000125085008141 	0
1.03267150566 	-0.000552478231422 	0
1.03806531643 	-0.00146478173535 	0
1.0457791737 	-0.00344899382038 	0
1.05777373512 	-0.00627448828117 	0
1.07596160662 	-0.0123736898188 	0
1.10362643686 	-0.0209146732786 	0
1.12602265438 	-0.0395803088198 	0
1.09202714863 	-0.0891044768866 	0
0.98682295767 	-0.165167832089 	0
0.887618161668 	-0.239015426989 	0
0.841868504738 	-0.283407467097 	0
0.835012084358 	-0.298626333074 	0
0.855117056104 	-0.27645129305 	0
0.884765382694 	-0.218334417686 	0
0.926284894268 	-0.15559639615 	0
0.965463394812 	-0.102090809402 	0
0.986580605915 	-0.064238542678 	0
1.00230664241 	-0.0396019865208 	0
1.01363706126 	-0.0231453616948 	0
1.0200850974 	-0.0138189177934 	0
1.02333625775 	-0.0084166286344 	0
1.02452088825 	-0.00526047188912 	0
1.02454692432 	-0.00323019782056 	0
1.02421749256 	-0.00192852117433 	0
1.02906059092 	0.00077112406482 	0
1.03266375746 	0.00122607289805 	0
1.03833932528 	0.00205861382155 	0
1.04628159949 	0.00286165523686 	0
1.05895950566 	0.00462861018995 	0
1.07754499461 	0.00658631862478 	0
1.10611255993 	0.0115264503799 	0
1.14277690129 	0.019883084458 	0
1.14266893785 	0.0151029902338 	0
1.06768261587 	-0.0250202037928 	0
0.96091863229 	-0.092500647653 	0
0.878517750447 	-0.140728224167 	0
0.83139188509 	-0.153332554091 	0
0.817338378078 	-0.133984418364 	0
0.832490460775 	-0.0976793779221 	0
0.876835754267 	-0.0630914153584 	0
0.9277687131 	-0.0317361843826 	0
0.962348232014 	-0.0135366915877 	0
0.986749279058 	-0.00571608631892 	0
1.00447958752 	-0.00213074063457 	0
1.01525508844 	-0.00131615054473 	0
1.02071549024 	-0.00100047566835 	0
1.02296845892 	-0.000890872843826 	0
1.02359533452 	-0.000663549425944 	0
1.02353018507 	-0.000477877598561 	0
1.02824556062 	0.00193854762191 	0
1.03143416936 	0.00331287040601 	0
1.03657069923 	0.00561097957436 	0
1.04354054022 	0.00877831479532 	0
1.05457569231 	0.0141592808971 	0
1.06989110207 	0.022355100823 	0
1.09156233355 	0.0362431752898 	0
1.12284049764 	0.0611870435323 	0
1.13749877359 	0.0924928168373 	0
1.09868979514 	0.10556729019 	0
1.01098812242 	0.0887800907441 	0
0.911241860701 	0.0679203777101 	0
0.836093884422 	0.0589547393224 	0
0.80564232866 	0.0552896059149 	0
0.815938258045 	0.0529482620033 	0
0.858692735172 	0.0543055516617 	0
0.9154712907 	0.0572512871688 	0
0.960555399664 	0.0508162904179 	0
0.990410389278 	0.035998357272 	0
1.00908195238 	0.0221042692075 	0
1.01876090293 	0.012606275324 	0
1.0228321421 	0.00694922540512 	0
1.02408958075 	0.00362750789218 	0
1.02415820253 	0.00181339942387 	0
1.02378426672 	0.000835147340436 	0
1.02675285017 	0.00273889568141 	0
1.02921107296 	0.00467469856015 	0
1.03309284721 	0.00785844138963 	0
1.03809511717 	0.0126425691137 	0
1.04578906453 	0.0205365630188 	0
1.05590754815 	0.0330673296135 	0
1.06786281794 	0.0525890490608 	0
1.08450854969 	0.0846992957285 	0
1.09666834127 	0.130229683273 	0
1.07265925612 	0.173624438196 	0
1.00214430124 	0.200932297168 	0
0.913139251386 	0.213540085716 	0
0.845745509021 	0.210755008637 	0
0.821504366926 	0.194146073209 	0
0.830964047626 	0.171781699814 	0
0.870510201228 	0.150431028738 	0
0.930763061136 	0.129217247732 	0
0.983450284871 	0.099730880175 	0
1.01503886176 	0.0649351716423 	0
1.02790812751 	0.0379699283057 	0
1.03035244101 	0.0218039422775 	0
1.02955833707 	0.0123648296673 	0
1.02788416041 	0.00682810655439 	0
1.02625523918 	0.00362350448263 	0
1.0249172392 	0.00183565651499 	0
1.0248739253 	0.00263534651103 	0
1.02634993157 	0.00462835539814 	0
1.02848166369 	0.00799873143436 	0
1.03077750454 	0.0133308906911 	0
1.03391584986 	0.0223247154522 	0
1.0375019206 	0.0370199472239 	0
1.03962333281 	0.0598053048827 	0
1.04230530448 	0.0931430190484 	0
1.04502568791 	0.139411037916 	0
1.02218128122 	0.19472757645 	0
0.965042872509 	0.2422514206 	0
0.898802193598 	0.269487815954 	0
0.854339398184 	0.271110729623 	0
0.844820022625 	0.255140602205 	0
0.859149612707 	0.229914648316 	0
0.901138660848 	0.197180974607 	0
0.966450662226 	0.159222122914 	0
1.02487738027 	0.111359199927 	0
1.05263708285 	0.0666982645037 	0
1.0528929125 	0.0385552154452 	0
1.04497836016 	0.0224125739781 	0
1.03812315911 	0.0130931868469 	0
1.03294330583 	0.00747016445342 	0
1.02922153143 	0.00413230269117 	0
1.02663210438 	0.00218064431281 	0
1.02319151937 	0.00175352167273 	0
1.02373029425 	0.00322281047141 	0
1.02413587314 	0.00583199959633 	0
1.02359587204 	0.0100560499423 	0
1.02180012179 	0.0175205904982 	0
1.01811956589 	0.0302278655024 	0
1.01137550216 	0.0510822495717 	0
1.0034492499 	0.0795924755036 	0
0.993784500051 	0.119792112204 	0
0.964100980643 	0.173422874494 	0
0.920395038888 	0.226787199271 	0
0.881198823715 	0.262917049698 	0
0.858794920421 	0.270288498928 	0
0.863150233865 	0.258583937572 	0
0.888110217443 	0.232601133551 	0
0.941257409652 	0.189863068631 	0
1.01797359956 	0.13571031612 	0
1.07594549451 	0.0799616924523 	0
1.08808774297 	0.0434168153786 	0