1.01417958005 	-0.008006586633 	-1.7797151915e-21
1.01550163045 	-0.0125548474675 	-1.3542476278e-21
1.01708354972 	-0.017686967319 	5.01910594498e-22
1.01893530785 	-0.0238129262117 	-6.82712965903e-24
1.02066724298 	-0.0310632130195 	-5.46773211348e-22
1.0217479511 	-0.0398446198776 	-2.79506195377e-22
1.02113318815 	-0.0499887496331 	-3.17148331375e-22
1.01679815496 	-0.0601276695539 	-1.58361694584e-21
1.0070702291 	-0.0722139842264 	2.24585628487e-20
0.987396805513 	-0.078440305943 	1.668498676e-21
0.959131097946 	-0.073149457018 	4.6343332531e-23
0.929832826153 	-0.0478916837066 	2.03196657855e-21
0.916408453895 	-0.00405336522181 	-3.44241871672e-24
0.930228613608 	0.0396199688622 	2.35900640657e-22
0.959261511955 	0.0645142736001 	-1.4752098791e-21
0.986704663183 	0.0700986277378 	1.70702936441e-21
1.00543409477 	0.0647662299786 	1.65403724427e-20
1.01481994526 	0.0541612802544 	-1.28025029511e-21
1.01899504252 	0.0455339114573 	-1.24564071397e-21
1.0198449857 	0.0368117397369 	2.58652337187e-22
1.01908608692 	0.0291295902808 	5.60578193381e-22
1.01773120883 	0.022637795516 	3.16131729018e-25
1.01624944055 	0.0170555323881 	-2.99960747682e-22
1.01495948815 	0.0122350358496 	6.58584511726e-22
1.01387879483 	0.00783757689411 	6.60764532849e-22
1.01864199855 	-0.00840083980277 	6.19486040171e-22
1.02051396997 	-0.0131713810941 	1.23729200594e-21
1.02300560398 	-0.0188215104801 	7.71690543235e-22
1.02601342583 	-0.0256008117714 	-1.62236644195e-22
1.02932672293 	-0.0339373246437 	8.14517903225e-22
1.03227503421 	-0.044525548147 	-3.53338570136e-22
1.03367768651 	-0.0577654249383 	6.24736928572e-22
1.0315196247 	-0.0745755815686 	2.08017601628e-22
1.021309457 	-0.0946913386653 	-6.73814322783e-22
0.996581208646 	-0.114011496111 	-2.86593080373e-21
0.948601735657 	-0.122490617531 	-4.00398569508e-21
0.881525655916 	-0.0914856320905 	1.02651183111e-20
0.84486574071 	-0.00383112399309 	1.67086845082e-22
0.882990867647 	0.0826055372956 	9.45330215303e-21
0.949125186569 	0.11200775007 	-7.78464654377e-21
0.995194012627 	0.103548187241 	-1.84500016977e-21
1.01830452822 	0.0856408684815 	-4.04140418767e-22
1.02760542495 	0.0677021913457 	-2.41363244058e-22
1.02984815392 	0.0531329272043 	-4.62960692171e-22
1.02893838179 	0.0416403514448 	2.4154815688e-22
1.02672243096 	0.0323518844503 	-5.8102399136e-22
1.02416401069 	0.0248197128683 	9.81150466875e-23
1.0217823981 	0.0185468838899 	-3.18164183627e-22
1.0197799827 	0.0131298313765 	-5.51639074432e-22
1.01825472227 	0.0084310998764 	-9.87619028418e-23
1.02314549574 	-0.00838020801561 	1.25950803069e-23
1.02574019629 	-0.0129887164825 	5.54938355282e-22
1.02925613981 	-0.0187742905981 	-5.09069773291e-22
1.0336997037 	-0.0257569552539 	-2.54237255331e-24
1.03910558075 	-0.034572382434 	2.34950953483e-22
1.0450180495 	-0.0462919985194 	2.01220714201e-22
1.05045365838 	-0.0621195580006 	-4.42357029424e-22
1.05336356991 	-0.0840597114098 	-1.18204777828e-21
1.04939410287 	-0.114512417725 	-1.10598489547e-22
1.02856068995 	-0.157140251493 	1.06360564417e-21
0.964180674413 	-0.206813702124 	1.55685332307e-20
0.807375920218 	-0.21114538502 	-2.0687492579e-21
0.667665661834 	-0.000854705452682 	-2.65422566169e-21
0.81337712365 	0.203722121927 	-3.63623034769e-21
0.966401036346 	0.194254878057 	9.90032833722e-21
1.02574769968 	0.14407522806 	-4.89652669214e-22
1.04369391042 	0.104270409328 	-1.11654735746e-24
1.04670940636 	0.0772375001517 	3.14182136612e-22
1.04432055798 	0.058251171972 	4.46560412354e-23
1.04009118605 	0.0445502003587 	1.02705451352e-24
1.03551109411 	0.0341021359578 	-9.08451318786e-23
1.03130230533 	0.0259045552429 	-2.42664931893e-25
1.02777544995 	0.0192181134087 	1.32472623381e-22
1.02494735746 	0.0134832980352 	-1.83067210247e-22
1.02283665728 	0.00868686240354 	-2.11076767859e-22
1.02754854939 	-0.00778409608006 	5.05164181063e-23
1.03081621787 	-0.0120882985161 	-1.16969587686e-23
1.03535047355 	-0.0174233724695 	8.83431019258e-23
1.04141624745 	-0.0239596914342 	-4.99530351416e-23
1.04915483897 	-0.0323173627947 	-7.14322253402e-23
1.05869292347 	-0.0439103994302 	-5.79998332717e-23
1.0697507289 	-0.0603806278636 	-3.48370073368e-23
1.08151957106 	-0.0847052254482 	-3.06885843727e-22
1.09192283568 	-0.1222926 	1.92394179946e-22
1.09527810019 	-0.185083120678 	-6.20659409454e-22
1.07273128231 	-0.306037274742 	2.51789133161e-22
0.857117705666 	-0.588993993049 	-1.77105686799e-21
0.878845010384 	0.578226096626 	5.34280469425e-22
1.07773811903 	0.286329878604 	-1.7235251497e-21
1.08954748214 	0.167740970219 	-1.84903429667e-21
1.08145007994 	0.111105108261 	-5.31591832438e-22
1.07084505228 	0.0793575425387 	7.70758774205e-22
1.06089852948 	0.0588675200865 	3.46611302703e-22
1.05219790037 	0.0445631645264 	-4.52702804366e-23
1.04483587612 	0.0338580228744 	-8.31058473587e-23
1.03876267706 	0.0256337466272 	-6.15507220199e-23
1.0339220745 	0.0189381138056 	-2.89490338139e-23
1.03021735459 	0.0132893530754 	-2.64361743703e-23
1.0275081832 	0.00853136090885 	2.56558195224e-24
1.03154976694 	-0.00660166431385 	-2.57277670242e-23
1.03535137294 	-0.0104728499332 	1.79846384199e-23
1.04075736384 	-0.0148320542007 	1.01422610729e-23
1.04830337 	-0.0202187278787 	3.73817171161e-25
1.05824974842 	-0.0271415239625 	-4.0526973136e-23
1.07146879003 	-0.0368009107202 	-3.47863506538e-24
1.0886291038 	-0.0509074555352 	-5.36334626211e-24
1.1105884613 	-0.0725393734443 	2.69257146859e-23
1.13902866803 	-0.107344548706 	-4.63306985878e-22
1.17835211582 	-0.165326140181 	-2.09902700312e-22
1.25376887603 	-0.265367034245 	1.9490254686e-22
0.0442498714269 	0.00138988079006 	-2.07089345638e-21
1.25808077109 	0.228819195334 	-2.60363386054e-22
1.1633081853 	0.141013910756 	3.59074994326e-22
1.11972790209 	0.0969949580623 	9.78239519968e-22
1.09425215787 	0.0712985932247 	-2.90706041161e-22
1.07692474027 	0.0539626765195 	-3.44202548011e-24
1.06398430632 	0.0412888084754 	7.25124702712e-24
1.05388846165 	0.0315370463721 	8.69749182288e-23
1.04602430528 	0.0238858165968 	-2.68901850018e-25
1.03987952259 	0.0176440688162 	5.34657935043e-23
1.03531842019 	0.0124629881038 	5.04803931309e-23
1.0320412298 	0.00782261513605 	-1.93745785776e-23
1.03466986626 	-0.00542079723153 	7.9522534685e-25
1.03886406288 	-0.00810170818213 	-4.89622404699e-24
1.04494424597 	-0.01128264251 	-1.4935083627e-23
1.05345801769 	-0.0148921637863 	9.91090704646e-24
1.06495607019 	-0.0193581251669 	1.0653249656e-22
1.0809852918 	-0.0253650689122 	1.97493233695e-22
1.10291933861 	-0.0340907355014 	-1.17311278412e-21
1.13332418367 	-0.047839207844 	4.62899201307e-22
1.17587123733 	-0.0703280041704 	1.59726202496e-21
1.23655475911 	-0.106181483046 	-9.82177395243e-21
1.30674269252 	-0.145091653266 	2.57222627431e-20
0.0779431149265 	-0.0362041638874 	1.2662799991e-21
-0.000565763691649 	0.00173572242758 	-4.20676096561e-22
0.194221070046 	0.0171275379467 	-5.99468539153e-23
1.29687834054 	0.0732488499715 	-3.57727458105e-20
1.19644598759 	0.0758727793517 	1.06329284999e-20
1.14172123397 	0.067011793023 	9.65035455337e-22
1.11052273937 	0.0556681285741 	3.37348960388e-22
1.08944723291 	0.0447171047616 	1.41512604665e-21
1.07396665328 	0.0351926634607 	-2.4650301365e-22
1.06184143968 	0.0272233064952 	-2.17299793456e-22
1.05252240753 	0.0206994815785 	-9.90530174218e-24
1.04526176629 	0.0153681852552 	-3.36969864319e-23
1.0398563623 	0.010782012168 	-7.64540118637e-23
1.03602121349 	0.00697118985759 	-1.54368162503e-22
1.03703628221 	-0.00381833823919 	-4.73461011381e-24
1.04120560961 	-0.00542226068256 	-2.04557425031e-22
1.04753605861 	-0.00726203945334 	2.76706597194e-22
1.05631099532 	-0.00881752981156 	-2.57071196758e-24
1.06839188259 	-0.0102617641259 	-3.22840923439e-22
1.08530801211 	-0.0115226768061 	-3.54294611595e-22
1.10917491841 	-0.0128062936378 	1.05483671039e-21
1.14371761053 	-0.0148026902994 	3.90423898168e-21
1.19397028627 	-0.0194276347537 	9.59273626502e-22
1.26857088769 	-0.0334622262879 	3.79949760703e-21
1.30704425291 	-0.0541587933606 	2.65834678213e-21
0.290506881102 	-0.168008491385 	-3.62729380407e-21
-0.191070133498 	-0.252972751677 	-3.16319996427e-21
0.325500560531 	-0.170129843727 	-7.33450184587e-21
1.21699834891 	-0.0519615778249 	-2.86996359658e-21
1.17922724488 	0.0188218610758 	-2.97086263878e-21
1.14289964769 	0.0385390297351 	-1.16692761873e-22
1.11759858305 	0.039174754105 	-4.09356802096e-21
1.09769287512 	0.0339271497009 	-1.27907448804e-21
1.08139846286 	0.0274767195054 	3.32448712017e-22
1.06828025704 	0.0214854087444 	4.20759141917e-22
1.05788177812 	0.0163576255827 	4.77326350726e-24
1.04973689082 	0.0122313908816 	-5.59664343891e-22
1.04363504581 	0.00849614913994 	4.96028656246e-22
1.03945437068 	0.00556498479209 	4.40256570091e-22
1.03855445667 	-0.00223549828389 	-1.67748325464e-22
1.04247567727 	-0.00290107999775 	-5.13645576321e-22
1.0484516893 	-0.00339276178219 	-3.59439617397e-22
1.05668900261 	-0.00303518615533 	6.53158535071e-23
1.0679162049 	-0.00147791235068 	-6.79151113184e-22
1.08363726895 	0.00209843434442 	4.99652820496e-22
1.10570828001 	0.00874767938678 	-1.27021715919e-21
1.13739362233 	0.0205533196444 	-9.53803697704e-23
1.19110283548 	0.037840839697 	-3.1438348721e-21
1.26817695083 	0.0609097596558 	-3.88138011581e-21
1.31543694009 	0.0797788582069 	8.85436790893e-21
0.574851272055 	-0.103374107157 	1.31497980491e-20
-0.149745392793 	-0.326625383955 	6.23334394867e-22
0.180317017515 	-0.298415317587 	7.11743314112e-21
1.05948165324 	-0.085053092672 	-1.37215292234e-21
1.13632601426 	0.00625313061768 	-1.86504518513e-21
1.13497993503 	0.0242740750233 	-1.38591125899e-21
1.11970106404 	0.0270633912455 	2.70793546057e-22
1.10287687044 	0.0235197023522 	1.67526774181e-21
1.08707054889 	0.0189178151663 	-6.18629492277e-22
1.07286795458 	0.014764969596 	9.67195504627e-22
1.06183922616 	0.0111751848942 	-1.1444314315e-22
1.05305381991 	0.00843028564732 	6.82487642288e-22
1.04653220373 	0.00585556289372 	8.76887032392e-22
1.04206193285 	0.00389497396919 	-1.4654092219e-23
1.03915528222 	-0.000989734813208 	5.03831983283e-22
1.04282054508 	-0.000905995213046 	4.80219617378e-22
1.04792276476 	-0.000289654505546 	-2.43261513466e-22
1.05495478916 	0.00149885929232 	-9.72068229387e-23
1.06412121644 	0.00539201352943 	3.24477635332e-22
1.07650914939 	0.0124798486172 	1.51339590068e-22
1.09364878972 	0.0263864488713 	-2.32828424255e-22
1.11517803191 	0.0465634971073 	8.01276729357e-22
1.15229397686 	0.0861006135777 	2.93706195644e-20
1.21297346275 	0.152443391132 	3.00950700996e-21
1.26573924483 	0.258719002787 	1.23601011206e-21
0.820352817621 	0.254135617198 	6.2115763889e-21
0.0562448338882 	0.0598355006014 	-3.63589459431e-22
0.0689612339534 	-0.092957123604 	1.48297902129e-21
0.917010660649 	-0.00125758016027 	-1.93019690436e-22
1.12031200723 	0.0384568434901 	7.15975821447e-22
1.1350510178 	0.0269307069269 	1.66554072601e-20
1.12328567574 	0.0192502531098 	3.56158264139e-22
1.10790614493 	0.0125793820509 	2.54875788923e-21
1.09039702606 	0.00958783483731 	-3.13080829601e-22
1.07579355434 	0.00715267858738 	-8.05484055185e-22
1.06423118984 	0.00533667555522 	1.58632380748e-22
1.0550216393 	0.00419386070419 	3.59683898496e-22
1.04835691637 	0.00303773566079 	-7.9018690402e-22
1.04364230561 	0.00203052756134 	-6.78474967498e-22
1.03916965395 	-2.21597521136e-05 	-6.72776846523e-22
1.04235250117 	0.000501921571651 	-2.89654764922e-22
1.04645803617 	0.00163660987935 	-4.23858797769e-23
1.05193244831 	0.0040696591184 	-2.4448443626e-22
1.05856790587 	0.00901815473517 	2.9083321699e-22
1.06654267194 	0.0179075916139 	-8.96537951344e-22
1.07284786447 	0.0319325498042 	-7.81339858629e-22
1.08259065941 	0.0598310249919 	-1.11482554497e-21
1.09336727162 	0.10746390984 	3.35112536642e-21
1.10180524568 	0.192904651827 	4.84137557276e-22
1.11924232162 	0.34629279249 	-5.94166783358e-21
0.835112519803 	0.468048948408 	-4.56315662654e-21
0.253970800478 	0.441665418872 	-9.09630493601e-22
0.196323577728 	0.277083295643 	-1.47179312317e-22
0.88226260731 	0.115308849128 	-3.83336539183e-22
1.16200768489 	0.0742586379817 	2.14228388461e-22
1.15747574363 	0.0218643941881 	1.82206226471e-21
1.1337925067 	0.00682852659561 	-6.04571409554e-22
1.11053711824 	0.0012202226062 	1.12317588385e-21
1.09171391272 	-0.0029823777235 	9.6050109221e-22
1.07721750165 	-0.00132591811282 	-1.60312302927e-21
1.06484628376 	-0.000938745650348 	3.38531160807e-22
1.05545520166 	-0.000280806038728 	1.17182028228e-22
1.04888080757 	-0.000113349309447 	8.62127436986e-22
1.04422106522 	-1.26120682313e-05 	3.93245657221e-22
1.03879671067 	0.000512196431818 	7.93528489559e-22
1.04148077337 	0.00124214289371 	-1.68595124748e-21
1.04477255293 	0.0022613045755 	1.03683573783e-21
1.04884193683 	0.00453577918917 	5.32522413491e-24
1.05217229059 	0.00847136818838 	1.57001488443e-21
1.05439238638 	0.0149332905619 	-3.78928536428e-22
1.0549983463 	0.0279119088411 	-1.30631134629e-21
1.04883561532 	0.0501430961024 	6.31404883226e-23
1.03169189672 	0.0922538921863 	7.19647464638e-22
0.993841915545 	0.166002305785 	5.37860175987e-22
0.949190333744 	0.300920968587 	-3.07109224763e-21
0.731115008606 	0.450231919885 	4.35688172197e-23
0.318371033096 	0.552101801082 	-3.63017977499e-22
0.407547467041 	0.427453406074 	1.07740491845e-22
1.05198639025 	0.100429343211 	-5.45825533993e-21
1.22994115928 	0.0317887756176 	3.73474980499e-22
1.18978052372 	-0.0113168388502 	9.20525332317e-22
1.14033271648 	-0.0161298331537 	1.2676542358e-22
1.11168379907 	-0.0171857348227 	-2.29852505036e-21
1.09021192569 	-0.0125308260347 	-7.7385248898e-22
1.07487869709 	-0.00998540861999 	2.03550306095e-21
1.0629679112 	-0.00789105394363 	-1.42173518826e-24
1.05421314664 	-0.00466265222407 	-1.9703785983e-21
1.04807440737 	-0.00338068161224 	3.33271078427e-21
1.04362455725 	-0.00170292731997 	-1.12453872951e-22
1.03832431325 	0.000820505766494 	-5.72028001942e-22
1.04074522899 	0.00146372138373 	-2.44523466973e-23
1.0434543796 	0.00251362152386 	1.768625568e-21
1.04596876792 	0.00308615097158 	-8.52106388645e-22
1.04818389872 	0.00474547110395 	1.2645097046e-21
1.04825228686 	0.0080872160629 	-1.33029354592e-21
1.04190510725 	0.0136179477517 	1.41125714285e-22
1.0268542858 	0.0236861750506 	-5.39049773505e-24
0.984679142149 	0.0468914183859 	-2.32263311963e-22
0.919208806515 	0.080353751522 	2.59023655655e-22
0.808172464563 	0.162652534673 	-3.20194781453e-22
0.524882138532 	0.356684050599 	-1.06059411821e-22
0.397090746566 	0.347727312863 	-2.28622648992e-22
0.723408689914 	0.117337377159 	-3.33043328282e-21
1.15337777713 	-0.0777182393855 	1.99189196635e-22
1.25895784514 	-0.0870778007679 	-3.68968037681e-21
1.19584623872 	-0.0676203976828 	2.8999036056e-21
1.13301982136 	-0.0493888464738 	2.37898741657e-23
1.10615061948 	-0.0365469894577 	4.74725760523e-22
1.08340571098 	-0.0255416440743 	-3.08743105519e-21
1.06967841111 	-0.0178640481396 	2.54960415161e-21
1.05870685733 	-0.0120861256494 	-4.41383309936e-22
1.05073582013 	-0.00903932924814 	-4.00066570056e-21
1.04624762322 	-0.00614647607073 	-1.03220856587e-22
1.04213186327 	-0.00323485522429 	7.87691294428e-22
1.03763428393 	0.00134281083192 	4.13474038766e-22
1.04016605554 	0.00155849540352 	-2.15764469693e-22
1.04256047098 	0.00154326440456 	-1.32867083684e-22
1.04607871835 	0.00150380315045 	1.49599826624e-22
1.04835289599 	0.00105777204983 	1.61707505205e-22
1.04793776574 	-0.000706512158503 	2.30057675308e-22
1.04213036824 	-0.00550346945289 	7.81451615707e-23
1.02407825449 	-0.0108363307355 	1.51829420396e-22
0.978426282549 	-0.0226487427184 	3.17361547947e-23
0.889739724237 	-0.0341617108426 	-1.7219714487e-22
0.671519189902 	0.0359960289084 	4.67749952327e-22
0.501362661006 	0.0609471918531 	3.87216907741e-22
0.592151182856 	-0.0848150607494 	-5.95724455144e-22
0.920195506398 	-0.257616745795 	2.2669053139e-21
1.15724973669 	-0.264082279115 	2.52497667292e-21
1.20685158768 	-0.192126578458 	2.23668024338e-22
1.15076243617 	-0.117359459008 	-1.16814701592e-22
1.10729355517 	-0.0774773568383 	-1.19981869921e-22
1.08906595111 	-0.0523834764066 	1.28728335543e-22
1.0724315879 	-0.0355056122242 	9.95020528143e-22
1.06158618633 	-0.023934216439 	3.52169980352e-22
1.05281347972 	-0.0161061699561 	2.69065446024e-22
1.0469108365 	-0.0106661901129 	-4.86395842057e-22
1.04327463514 	-0.00739349196054 	-1.2772302344e-21
1.03968272816 	-0.0044462640211 	-8.54978915953e-22
1.03705112079 	0.00166819996234 	-9.30872570009e-22
1.03928653965 	0.00161409361399 	2.99397312525e-22
1.04316922587 	0.00185653394312 	1.44544272436e-23
1.04709593285 	0.000854696456962 	2.53669425711e-23
1.05119068643 	-0.00104803054431 	4.55213446765e-23
1.05587584603 	-0.00734431107566 	3.20217104459e-22
1.05737858718 	-0.0188133340109 	-3.913280282e-22
1.05591907322 	-0.0420470799929 	1.08122440999e-23
1.02984930998 	-0.103193789764 	-4.288778325e-23
0.894661075831 	-0.14738246596 	8.66348950555e-24
0.664452346864 	-0.208770266688 	4.05438223538e-22
0.599882914011 	-0.277066462236 	1.60702287326e-24
0.710832220626 	-0.352384947812 	-4.32996364362e-22
0.925416704564 	-0.383237522543 	1.0493978142e-21
1.07635678621 	-0.333049567884 	4.2625042177e-22
1.10596396591 	-0.229151607412 	-3.33724406895e-24
1.07813086191 	-0.142267045935 	3.35389093691e-23
1.07089744979 	-0.0914577012221 	4.57220355516e-23
1.0640311024 	-0.0605105116346 	1.1641879573e-21
1.05699141376 	-0.0394023538272 	-3.38470788821e-22
1.05141481583 	-0.0261906709258 	-5.19618376892e-22
1.0466912459 	-0.0176234736426 	7.17297138527e-23
1.04243791898 	-0.011779514656 	-7.98096940118e-24
1.03901867677 	-0.00776783131414 	1.0765653392e-21
1.03683152161 	-0.00499897753452 	1.94501130949e-22
1.03634333716 	0.00127386767822 	-1.45249834111e-22
1.0395433793 	0.00223776654701 	-1.61205210143e-22
1.04410773784 	0.00223148784119 	6.06377250319e-23
1.0497417293 	0.00118091584247 	5.05722200326e-23
1.05735005245 	-0.00114525981723 	4.6137932227e-23
1.0663918781 	-0.00864827426766 	-1.72435600529e-22
1.08086512129 	-0.0209512591914 	-2.68111269547e-23
1.10454682075 	-0.0533937370738 	4.12542767775e-22
1.1027121934 	-0.112873451593 	-2.15840577829e-22
0.975860239432 	-0.216970705672 	-2.54830124852e-22
0.772872367423 	-0.343594218742 	2.55856544533e-22
0.671842489604 	-0.42306955198 	0
0.725979322703 	-0.443398299867 	-1.27460784699e-35
0.870917261739 	-0.402199877436 	-2.02067740464e-24
0.973410140166 	-0.309840290232 	-3.41777911594e-22
1.00342324186 	-0.205751043238 	2.02228960364e-22
1.01823016156 	-0.128491995092 	2.99623526792e-22
1.03198636557 	-0.0828197251616 	-3.87746908286e-22
1.03882376294 	-0.0546485908431 	3.04414974346e-23
1.03979833782 	-0.0358392665653 	4.1898712969e-22
1.04006495382 	-0.0239696855895 	1.87646127884e-22
1.03902625307 	-0.0164100072712 	-3.31991577891e-24
1.03720005491 	-0.0108825214916 	2.03391491174e-22
1.0356365696 	-0.00707492171441 	-6.84612520821e-22
1.03411554549 	-0.00419248240386 	-6.43465710501e-22
1.03555449672 	0.00211329914871 	0
1.03888388331 	0.00333445565276 	0
1.04373718236 	0.00420156006331 	0
1.05042707785 	0.00413582688178 	0
1.06065710526 	0.00466384628004 	0
1.07495626091 	0.000631476625069 	0
1.09893407157 	-0.00491622101211 	0
1.1418539416 	-0.0178829344731 	0
1.17916482056 	-0.0489052813125 	0
1.09619289149 	-0.124073444338 	0
0.881459296132 	-0.255691183838 	0
0.720558280782 	-0.365969160072 	0
0.704734225817 	-0.400413097766 	0
0.785411026972 	-0.35661923449 	0
0.87032572165 	-0.256742273547 	0
0.922658718448 	-0.163617895537 	0
0.966755364529 	-0.104108439033 	0
1.00068967374 	-0.0659859879986 	0
1.01948823354 	-0.0419190457775 	0
1.02758344586 	-0.0272497355598 	0
1.03222511646 	-0.0184090784329 	0
1.03389023592 	-0.0125800006039 	0
1.03366656474 	-0.00859278108381 	0
1.03308228067 	-0.00582635287117 	0
1.03221776043 	-0.00357824390625 	0
1.03423745347 	0.00307772192504 	0
1.0373976046 	0.00479551269561 	0
1.04234873267 	0.00696607950964 	0
1.04874200215 	0.00880155962622 	0
1.0595348889 	0.012780057258 	0
1.07470191715 	0.0158223144857 	0
1.09802089857 	0.0214530067215 	0
1.14316753228 	0.0332480146754 	0
1.20092283334 	0.0484246331138 	0
1.17599743645 	0.0469156690908 	0
1.0119246897 	-0.0233881040051 	0
0.822387705067 	-0.134851538351 	0
0.723924407287 	-0.197608548591 	0
0.727034533107 	-0.191179532957 	0
0.781466262564 	-0.133670322688 	0
0.854394113428 	-0.0741403068871 	0
0.925603253276 	-0.0435692350192 	0
0.974319332073 	-0.0265577054891 	0
1.0038653942 	-0.0163910773571 	0
1.01937903077 	-0.0115162396998 	0
1.02720549012 	-0.00880504626548 	0
1.03063636899 	-0.00660168352974 	0
1.03149986031 	-0.0050802667494 	0
1.03132294137 	-0.00380722401717 	0
1.03068741368 	-0.00251133683833 	0
1.03249785161 	0.00381280037168 	0
1.03518609754 	0.00608501503506 	0
1.03961252996 	0.00932593796363 	0
1.0449289685 	0.0132479414798 	0
1.05405394539 	0.0196452456087 	0
1.06649773575 	0.0285414021204 	0
1.0831528998 	0.0425618025768 	0
1.11588490963 	0.0666338805438 	0
1.16319913144 	0.108541858041 	0
1.16532250986 	0.163213648991 	0
1.07188566443 	0.1792843507 	0
0.912145705876 	0.134064343509 	0
0.773934015053 	0.0837063252478 	0
0.728225580586 	0.0551420510616 	0
0.754859769083 	0.0532233627051 	0
0.829659519128 	0.061295549032 	0
0.916776829848 	0.052248715961 	0
0.972552184374 	0.0346166804951 	0
1.00384264264 	0.0184810382519 	0
1.02006870382 	0.0084116540624 	0
1.02730439281 	0.00255127550812 	0
1.0303509378 	-0.000245123072128 	0
1.03094233588 	-0.00144202953592 	0
1.03050987522 	-0.0016827487257 	0
1.02972191964 	-0.00133440803947 	0
1.03024836866 	0.00417284593207 	0
1.03223441572 	0.0067679453828 	0
1.03548539041 	0.0105303363613 	0
1.03926230407 	0.0156964845412 	0
1.04527351748 	0.0233516146079 	0
1.05300874421 	0.0352700506226 	0
1.06209022145 	0.0532978673767 	0
1.07816770458 	0.0810656034481 	0
1.10039517372 	0.130457248652 	0
1.09931155421 	0.203024728732 	0
1.04442282149 	0.266718990822 	0
0.926782053498 	0.287257304454 	0
0.806045854398 	0.273817105037 	0
0.757928821757 	0.242634013695 	0
0.775712799005 	0.211839813528 	0
0.852732691768 	0.181606792872 	0
0.949681530365 	0.137258028319 	0
1.00666216344 	0.0862164466558 	0
1.0282026007 	0.0461913633228 	0
1.03378099063 	0.0240423864614 	0
1.03460819318 	0.0113619129747 	0
1.03395905646 	0.00473826199569 	0
1.03240550534 	0.00142354447906 	0
1.03087955432 	-5.19000909403e-05 	0
1.02953532596 	-0.000422923271647 	0
1.02769966766 	0.00392037565675 	0
1.02885842354 	0.00638429439434 	0
1.03054742459 	0.00989573059045 	0
1.03225063381 	0.0150530975163 	0
1.03427896548 	0.022893486348 	0
1.03621352742 	0.0356273519409 	0
1.03710717303 	0.0555884944979 	0
1.03738256148 	0.0857123626496 	0
1.03584193163 	0.13540381727 	0
1.01853678527 	0.205389700337 	0
0.979013019614 	0.285968038759 	0
0.901270694732 	0.340068596354 	0
0.818457033823 	0.34525889047 	0
0.790282017414 	0.321368656027 	0
0.815107120058 	0.284486510364 	0
0.90359401137 	0.232739591609 	0
1.01201670406 	0.162738374184 	0
1.06469758646 	0.0938358027137 	0
1.06709028904 	0.0495577216455 	0
1.05526893026 	0.0266179194768 	0
1.04649323842 	0.0131134292762 	0
1.04021826716 	0.00619201447658 	0
1.03552579751 	0.00235866333637 	0
1.03218621397 	0.000522071136547 	0
1.02986684036 	-8.52265786775e-05 	0
1.02550981241 	0.00284514102129 	0
1.02595277515 	0.00462160645107 	0
1.0262053551 	0.00714879379694 	0
1.02567169718 	0.0110228189799 	0
1.02357868984 	0.0173922871502 	0
1.01912733283 	0.0280965139943 	0
1.01062767936 	0.0463892119865 	0
0.997222494874 	0.0743423718568 	0
0.977602236373 	0.11739379857 	0
0.941794314489 	0.176863658265 	0
0.902672875906 	0.251499805497 	0
0.860521904701 	0.3174803945 	0
0.820682644881 	0.336642863961 	0
0.816166672056 	0.317524607528 	0
0.862128241603 	0.2711366752 	0
0.976656940176 	0.19331317746 	0
1.09052603217 	0.109324680349 	0
1.12066580464 	0.0528121361051 	0
1.09774959538 	0.027903421124 	0
1.07219270925 	0.0152610888612 	0
1.05609503778 	0.00713203681976 	0
1.04541444449 	0.00335977728703 	0
1.03839827627 	0.000962228217713 	0
1.03343218798 	-4.25209133393e-05 	0
1.03020141653 	-0.000297380432591 	0
1.02427909112 	0.00126018646727 	0
1.02438104799 	0.00197306008865 	0
1.02385375265 	0.00294014815278 	0
1.02185590264 	0.00427294844495 	0
1.01689864865 	0.00661189433455 	0
1.0072110381 	0.0106412829936 	0
0.990641860978 	0.0192316686175 	0
0.966839036153 	0.0336830928982 	0
0.932914692713 	0.0591741825598 	0
0.881828673133 	0.0987218262636 	0
0.836748456839 	0.147146764855 	0
0.8158854619 	0.19890892197 	0
0.818268583848 	0.222733761532 	0
0.855535906479 	0.203376108438 	0
0.941635978769 	0.141629419778 	0
1.06745808568 	0.059700266063 	0
1.15157054033 	0.00721426596443 	0
1.14563575352 	-0.00657529631486 	0
1.10578830397 	-0.0038540115215 	0
1.07703311363 	-0.00270070946725 	0
1.05886545401 	-0.00287221902163 	0
1.0467003847 	-0.00217340617936 	0
1.03911617872 	-0.0019706250361 	0
1.03361347802 	-0.00138882256313 	0
1.03011835935 	-0.000957843911158 	0
1.02414822738 	-0.000197511047409 	0
1.02441596465 	-0.000621212761536 	0
1.02410319736 	-0.00158635812824 	0
1.02241215558 	-0.00359930944742 	0
1.01761910028 	-0.0071203548324 	0
1.00717902086 	-0.0132084804779 	0
0.987904094552 	-0.0215656705402 	0
0.957890404869 	-0.030201762532 	0
0.912462959869 	-0.0305462859263 	0
0.852357638692 	-0.0199265659104 	0
0.805348476045 	-0.00765630309363 	0
0.793136536152 	0.00298310420186 	0
0.824747194851 	0.00577679842433 	0
0.904199887031 	-0.0110632029458 	0
1.01447077767 	-0.0523560857321 	0
1.11645873881 	-0.0860018397165 	0
1.15614778506 	-0.0787224454336 	0
1.13161519396 	-0.0517764364822 	0
1.09466886218 	-0.0304799277061 	0
1.07134996799 	-0.0190337303475 	0
1.05545526627 	-0.0124571204082 	0
1.04432281749 	-0.00797496682875 	0
1.03745681568 	-0.00531380946122 	0
1.03237616226 	-0.00322687245583 	0
1.02924022124 	-0.00197879197488 	0
1.02489532622 	-0.00122487351062 	0
1.02590331938 	-0.00258213050003 	0
1.02690045111 	-0.00524291245184 	0
1.02754347964 	-0.0100452158879 	0
1.02658439387 	-0.0183947957133 	0
1.0218505413 	-0.0329029398229 	0
1.0074409901 	-0.0569689711471 	0
0.975849244055 	-0.0887277376854 	0
0.921704084407 	-0.115278472095 	0
0.85653907291 	-0.13239151339 	0
0.812644985836 	-0.148823361558 	0
0.803724176609 	-0.169164012633 	0
0.837751876896 	-0.18621308548 	0
0.921205199314 	-0.193500242859 	0
1.02134313633 	-0.189528665899 	0
1.09611317492 	-0.166568003333 	0
1.11647185016 	-0.122503958046 	0
1.09620508477 	-0.0774699641303 	0
1.0738732006 	-0.0478712588346 	0
1.05942619967 	-0.0303875683731 	0
1.04805808077 	-0.0192678250073 	0
1.03963445262 	-0.0121954052987 	0
1.03429081409 	-0.00781811247077 	0
1.03018887757 	-0.0047626178156 	0
1.02768453317 	-0.00284345151525 	0
1.02618667903 	-0.00178846652859 	0
1.02835604413 	-0.00356605649924 	0
1.03136353232 	-0.00683495083409 	0
1.03544672397 	-0.0124751392444 	0
1.04045416445 	-0.0219874756557 	0
1.04584499298 	-0.0386784013311 	0
1.04377090308 	-0.067649263927 	0
1.01594074269 	-0.113040092447 	0
0.956008718937 	-0.160781575515 	0
0.88541187881 	-0.198170341411 	0
0.840511639176 	-0.230491919419 	0
0.82886888528 	-0.25805872177 	0
0.84808943274 	-0.276601494626 	0
0.907570692593 	-0.275812664687 	0
0.983922273941 	-0.246918382168 	0
1.04340714147 	-0.196099965352 	0
1.06266924493 	-0.138099823878 	0
1.05464498788 	-0.0898777378727 	0
1.04792873866 	-0.0572604080041 	0
1.04307998792 	-0.0358915066713 	0
1.0376464618 	-0.0221208261422 	0
1.03323795997 	-0.0136469415164 	0
1.03019851504 	-0.00846773804178 	0
1.02757720373 	-0.00508779675378 	0
1.02586376226 	-0.00297966055457 	0
1.02766570604 	-0.00167008669741 	0
1.03094563616 	-0.00317104310804 	0
1.03582785858 	-0.005715519943 	0
1.04293362643 	-0.0100621652601 	0
1.05331161658 	-0.0169660016683 	0
1.06823859177 	-0.0293655339413 	0
1.08227818836 	-0.050176452683 	0
1.0689799909 	-0.0912256894353 	0
1.00766455937 	-0.151226787606 	0
0.925836492553 	-0.206660407451 	0
0.871390942809 	-0.249650183908 	0
0.850744911234 	-0.277735894416 	0
0.854188074438 	-0.292199760871 	0
0.887021694702 	-0.284913857676 	0
0.934062716707 	-0.245196831876 	0
0.981095346337 	-0.186703453823 	0
1.00808426845 	-0.128541391639 	0
1.01388192652 	-0.0848361065507 	0
1.01953773791 	-0.0543761620244 	0
1.02404720634 	-0.0327949391356 	0
1.02564894952 	-0.0194580856528 	0
1.02602605157 	-0.0115521852457 	0
1.02573970768 	-0.00692126302143 	0
1.02485009371 	-0.00402238067465 	0
1.02405132369 	-0.00229418366105 	0
1.02875347817 	-0.000783080818998 	0
1.0326141069 	-0.00141229473399 	0
1.03854842469 	-0.00235733451847 	0
1.04719123374 	-0.00411960997944 	0
1.0604051291 	-0.00646565041224 	0
1.08004484562 	-0.0110811687463 	0
1.10568895302 	-0.0172311214622 	0
1.11613200588 	-0.035058703239 	0
1.07212527061 	-0.0796956078326 	0
0.985096833987 	-0.141784280279 	0
0.911784393179 	-0.200541114737 	0
0.870177597619 	-0.234244080569 	0
0.852612907594 	-0.242790731197 	0
0.859065472245 	-0.224865977513 	0
0.882206178927 	-0.181741697619 	0
0.922467964245 	-0.1318203251 	0
0.960371932697 	-0.0852556825191 	0
0.980230765726 	-0.0529563910815 	0
0.995373442124 	-0.0321662551117 	0
1.00782323513 	-0.0177769610444 	0
1.01599685669 	-0.00997458352185 	0
1.02045889688 	-0.00566399014015 	0
1.02240073797 	-0.00331543283039 	0
1.02283800613 	-0.00184204332888 	0
1.02274815121 	-0.00103784762019 	0
1.02886508345 	0.000513084212249 	0
1.0326612234 	0.000981664164111 	0
1.03866629824 	0.00182678298558 	0
1.04724096192 	0.00292676049207 	0
1.06049650641 	0.00522379205559 	0
1.07958833685 	0.0085108381954 	0
1.10649896616 	0.0155171756179 	0
1.13129525311 	0.0246206413693 	0
1.1153625904 	0.0201579145423 	0
1.04819559448 	-0.0126620218844 	0
0.965811377758 	-0.0606621522832 	0
0.89521377748 	-0.0886880604235 	0
0.848070518852 	-0.0922872829633 	0
0.831878851419 	-0.0797573885735 	0
0.844269236372 	-0.0579536644236 	0
0.88337138562 	-0.0346882854017 	0
0.929268041291 	-0.0108836883873 	0