1.01417308279 	-0.00792669123171 	-1.62491654147e-21
1.01553807322 	-0.0124298652555 	-1.2376214126e-21
1.01718319721 	-0.0175215289168 	4.6244685225e-22
1.01913414743 	-0.0236030632932 	-1.01442420345e-23
1.02100280351 	-0.0308283944973 	-4.97431869525e-22
1.02226075718 	-0.0396079345717 	-2.61837554199e-22
1.02186810773 	-0.0498181524498 	-2.9563090265e-22
1.01780884875 	-0.0601605208218 	-1.50041564624e-21
1.00832167538 	-0.0725475899417 	2.14553375413e-20
0.988766017772 	-0.0792608628353 	1.62308239957e-21
0.960358049086 	-0.0745605101497 	5.15744387167e-23
0.930570079625 	-0.049827510866 	2.0077270312e-21
0.916393445505 	-0.00622688566436 	-3.53262076684e-24
0.929459787452 	0.0376819270437 	2.30487753732e-22
0.958010484511 	0.063114724648 	-1.49591557732e-21
0.985320207513 	0.069295701293 	1.74358660933e-21
1.00417669815 	0.0644528020312 	1.72076995891e-20
1.0138113795 	0.0541471618691 	-1.34458867069e-21
1.01826732084 	0.0457219028225 	-1.3287270817e-21
1.01934276959 	0.0370604120906 	2.75734188991e-22
1.01876219109 	0.0293712623335 	6.16201722291e-22
1.01754585469 	0.0228508626394 	-4.42915334445e-24
1.01616287063 	0.0172213471525 	-3.26371486996e-22
1.01493587649 	0.0123591251525 	7.26495975619e-22
1.01389651457 	0.00791671545301 	7.27813947637e-22
1.01858206269 	-0.00828249549858 	5.59303824011e-22
1.02048612276 	-0.0129815302474 	1.11853154072e-21
1.02303465695 	-0.0185433473437 	6.79083145708e-22
1.02613692775 	-0.0252137169625 	-1.47405510038e-22
1.02959639204 	-0.0334340008057 	7.44007217426e-22
1.03277251783 	-0.0439181105766 	-3.18453293743e-22
1.03448768117 	-0.057105594184 	5.56248846468e-22
1.03271787786 	-0.073979977235 	1.91301717174e-22
1.02301159028 	-0.094422679265 	-6.34161947924e-22
0.998627941121 	-0.114356350077 	-2.71725148614e-21
0.950659131645 	-0.123807797262 	-3.8631504582e-21
0.882891216315 	-0.0938479206502 	1.01444828998e-20
0.844854788077 	-0.00667541669694 	1.66625728323e-22
0.881583001574 	0.0802570265098 	9.52222252547e-21
0.947035725867 	0.110712037994 	-7.97783966494e-21
0.993126028316 	0.103230402627 	-1.94879828585e-21
1.01660128002 	0.0859417581927 	-4.33276319543e-22
1.02641120185 	0.0683270221048 	-2.6394101992e-22
1.02904710704 	0.0538139327984 	-5.37509482913e-22
1.02845659328 	0.0422644742419 	2.74701064877e-22
1.02647041297 	0.032866548128 	-6.41206535314e-22
1.02405755748 	0.0252127908769 	1.09239887707e-22
1.02176863387 	0.0188291345858 	-3.85804758167e-22
1.01982082905 	0.0133201170392 	-6.2073348169e-22
1.01832668488 	0.00855052811559 	-9.73439801359e-23
1.02300844162 	-0.00823988647778 	1.14143289174e-23
1.02561178084 	-0.0127521850168 	4.84093131332e-22
1.02916110127 	-0.0184009497465 	-4.35826387699e-22
1.03367098802 	-0.0252099235059 	-1.96484356801e-24
1.03919986411 	-0.0338037936125 	2.04941274312e-22
1.04534255419 	-0.0452658425208 	1.53901661762e-22
1.05116487854 	-0.0608498183068 	-3.4699036328e-22
1.05467374998 	-0.0826633381198 	-9.66481860822e-22
1.05150195903 	-0.113277208702 	-7.86351398783e-23
1.0315454325 	-0.156630649738 	9.64637009166e-22
0.967778158117 	-0.207925209081 	1.47106260013e-20
0.810203392093 	-0.214600707356 	-2.04902960779e-21
0.667632388344 	-0.00563038729915 	-2.65075178716e-21
0.810492045272 	0.200320042062 	-3.67736227505e-21
0.962771552044 	0.193190850352 	1.04979393727e-20
1.02273700457 	0.144627825925 	-5.57468790554e-22
1.04157602966 	0.105550311977 	-1.23255025455e-23
1.0454050911 	0.078681437228 	5.2073413661e-22
1.04362918904 	0.0595585183183 	1.30389849895e-22
1.03978925035 	0.045604973584 	-3.34553121052e-23
1.03544003989 	0.0348899685444 	-1.11576510165e-22
1.03135232855 	0.0264655190514 	2.15152383072e-25
1.02788926309 	0.0196021445707 	1.84145735709e-22
1.02508946573 	0.0137294593133 	-2.31585587549e-22
1.02298719697 	0.00883042377254 	-2.56448626778e-22
1.02731835062 	-0.0076445053363 	4.33355318013e-23
1.03056407006 	-0.0118352429924 	-5.47490199839e-24
1.03508116667 	-0.0170040724909 	7.62605774056e-23
1.04114909755 	-0.0233093519008 	-2.61673592396e-23
1.04893955212 	-0.0313441210656 	-3.85611033261e-23
1.05865112549 	-0.0425019099488 	-3.44948714687e-23
1.07010602582 	-0.058451525584 	-1.23684195486e-22
1.08262624648 	-0.082271363643 	-3.39803358746e-22
1.09429369199 	-0.119619226101 	3.20013735893e-22
1.09949857392 	-0.182946072169 	-8.56652669299e-22
1.07911558143 	-0.306052168156 	5.15797114259e-22
0.86435681998 	-0.594510297451 	-1.26368457215e-21
0.871551316409 	0.572862155609 	7.34462796014e-22
1.07134645441 	0.286376594139 	-1.4853472542e-21
1.08529590595 	0.169934825537 	-1.57533313592e-21
1.07907075944 	0.113851724813 	-4.51914081388e-22
1.06975209594 	0.0818609739297 	6.98242777434e-22
1.06057701546 	0.0608490354887 	2.78483918651e-22
1.05227493249 	0.0460080711889 	-2.76282307772e-23
1.04508390854 	0.0348546520536 	-5.64067224161e-23
1.0390565903 	0.0263000780354 	-4.5084085811e-23
1.03421335053 	0.0193673445006 	-3.71377040574e-23
1.03048935064 	0.0135530837271 	-2.21284253394e-23
1.02775404721 	0.00867798575535 	1.09344008938e-24
1.03123158954 	-0.00648749283423 	-1.96123522331e-23
1.03496725169 	-0.0102536161725 	6.77310578e-24
1.0402865151 	-0.014452508471 	-6.11746159244e-25
1.04773532352 	-0.019580740778 	5.95080310721e-25
1.05759955401 	-0.0261081270385 	-5.22161998974e-23
1.07082936657 	-0.0351592900785 	-4.22316552019e-24
1.08823723332 	-0.0484028158229 	-6.09094674641e-24
1.11093769739 	-0.0689456113895 	3.04065597885e-23
1.14103424173 	-0.102655113529 	-5.12297095081e-22
1.18336888199 	-0.160195123387 	-2.30636753612e-22
1.26337682784 	-0.261520640868 	2.07092909804e-22
0.043333220565 	0.0013730919023 	-1.99896318223e-21
1.24848109578 	0.232593473662 	-2.48040863107e-22
1.15819725826 	0.146199429705 	3.3791864284e-22
1.11770411939 	0.101804199747 	9.08083929055e-22
1.09393638457 	0.074991324771 	-2.68218338443e-22
1.07737649329 	0.0565273144044 	-3.1725899151e-24
1.06467758282 	0.0429613864854 	6.56369325842e-24
1.05458133795 	0.0325851452571 	7.87447604044e-23
1.04662480214 	0.0245305867275 	-2.38862205695e-25
1.04037417408 	0.0180243918956 	4.62848112504e-23
1.03572336667 	0.0126810438932 	4.31545069177e-23
1.03237911678 	0.00793704621372 	-1.51446666556e-23
1.03428968824 	-0.00537390117197 	6.90002873194e-25
1.03837123376 	-0.00799915930842 	6.62913201007e-24
1.04428711992 	-0.0110581154519 	-6.24808132308e-24
1.05257716721 	-0.0144440652128 	1.08653478301e-23
1.06378801002 	-0.0185205160175 	1.18970328793e-22
1.07952503267 	-0.0238194356531 	2.11035444972e-22
1.10130141613 	-0.0313621017159 	-1.26402247554e-21
1.13203007515 	-0.0432814260617 	4.74643620626e-22
1.17610202616 	-0.0632406896839 	1.71400207107e-21
1.24082798206 	-0.0964340882854 	-1.05167857662e-20
1.31956646618 	-0.135610128706 	2.75589398706e-20
0.0852651602692 	-0.0428764255753 	1.34759183876e-21
-0.000421960599438 	-0.0036439227907 	-4.20008953725e-22
0.185086232322 	0.0092447205283 	-4.59830511518e-23
1.28381090625 	0.0823987887877 	-3.39656075121e-20
1.19189222568 	0.0858011552364 	1.00242213259e-20
1.14148780042 	0.0743367545326 	9.15785885907e-22
1.11191561694 	0.0603599581014 	3.03801626457e-22
1.09117492121 	0.0474873828353 	1.34534530153e-21
1.07550816852 	0.0367429893269 	-2.37473908058e-22
1.063061957 	0.0280505765796 	-2.06857542683e-22
1.05344165775 	0.0211407560972 	-9.51403680248e-24
1.04594421588 	0.0155837522633 	-2.74256100044e-23
1.04036770206 	0.010878886077 	-6.90946171087e-23
1.03641671131 	0.00701077009452 	-1.44564490425e-22
1.03664368739 	-0.00388813443193 	-5.00888308607e-25
1.0406707741 	-0.00551442811205 	-2.29039085667e-22
1.04676334737 	-0.00731498099874 	3.04893040926e-22
1.05519122481 	-0.00876708439412 	-2.84194396738e-24
1.06674139766 	-0.00993886764185 	-3.35280540866e-22
1.08294064493 	-0.0105907680075 	-3.71238338938e-22
1.10594356136 	-0.0106315957862 	1.0980369778e-21
1.13975700474 	-0.0102168280985 	4.04385044377e-21
1.19007765404 	-0.0105154947441 	1.01249300046e-21
1.26824151938 	-0.0174768060468 	4.00722755674e-21
1.32428888724 	-0.0324205609148 	2.97984716191e-21
0.338695309478 	-0.169237856155 	-4.04646652986e-21
-0.178321595517 	-0.2797548706 	-3.19295949113e-21
0.257831312972 	-0.17929542587 	-6.63800664915e-21
1.19844928049 	-0.0307471191459 	-2.65504088139e-21
1.1790801628 	0.0357379998575 	-2.78865890246e-21
1.14695453302 	0.0478977650084 	-1.09866370793e-22
1.12184642458 	0.0439258810002 	-3.97956203172e-21
1.1011107094 	0.0360977128868 	-1.24884142761e-21
1.08386720381 	0.0283676199411 	3.23898585481e-22
1.06998364625 	0.0217626133663 	4.16175244373e-22
1.05903812225 	0.0163795560382 	4.59009090627e-24
1.0505315814 	0.0121635287914 	-5.45334503087e-22
1.04419122701 	0.00840664982548 	4.84186838652e-22
1.03986177145 	0.00549816726892 	4.30270853912e-22
1.03821652355 	-0.00240951815168 	-1.75058459226e-22
1.04198170511 	-0.00320751922328 	-5.29444884032e-22
1.04769442225 	-0.00380923521378 	-3.82474085649e-22
1.05551061332 	-0.00355769978584 	6.44253911579e-23
1.06600696312 	-0.00201960138093 	-6.76860059654e-22
1.08056786611 	0.00175864363302 	5.03456509457e-22
1.10089024419 	0.0092775933741 	-1.28491093338e-21
1.13018883887 	0.0231477582225 	-9.42277390794e-23
1.18088903215 	0.0458259915688 	-3.17949490981e-21
1.25386879843 	0.0799171270746 	-3.95992711383e-21
1.32011507228 	0.120943511712 	9.32953840604e-21
0.631888617827 	-0.0263206165983 	1.47579524965e-20
-0.130597001561 	-0.233587574968 	6.60450516624e-22
0.101278225628 	-0.238025532248 	6.30101048256e-21
1.04752788713 	-0.0438490255517 	-1.17062681647e-21
1.15016698102 	0.0272576771234 	-1.78020385806e-21
1.14656417352 	0.0331769120255 	-1.30346110138e-21
1.12742737711 	0.0296874011632 	2.79100977792e-22
1.10793235425 	0.0238704744529 	1.68167051222e-21
1.09021763485 	0.0184638822275 	-6.2373219285e-22
1.07480312652 	0.0141526424697 	9.85725101333e-22
1.06302524575 	0.0106076630707 	-1.16815282732e-22
1.05381658509 	0.00798390584164 	6.73346079468e-22
1.04703183318 	0.00552948577372 	8.79685164791e-22
1.04240601474 	0.0037096687241 	-7.23114800264e-24
1.03896268963 	-0.00127812080168 	5.08047157897e-22
1.04249571438 	-0.00141369659256 	4.79731815911e-22
1.04737011755 	-0.00108743417971 	-2.37782074249e-22
1.05400200351 	0.000330248692486 	-1.01046162936e-22
1.06238336157 	0.00372370867307 	3.25766134073e-22
1.07338561205 	0.0104233702357 	1.43340797826e-22
1.08791468721 	0.0240294829416 	-2.25564194715e-22
1.10548235462 	0.0449601153336 	7.75898627053e-22
1.1355503709 	0.0867730266474 	2.799618993e-20
1.18168074663 	0.160508643608 	2.86956005511e-21
1.23546036744 	0.287804198992 	1.14263941488e-21
0.823241811179 	0.34760405445 	5.81810682765e-21
0.0622567027119 	0.204220461835 	-2.86930485964e-22
0.0695497405599 	0.0361191178557 	1.46576776654e-21
0.935029695252 	0.0380929983006 	-2.36909264166e-22
1.15289787814 	0.0509492340117 	7.93965315027e-22
1.15405138139 	0.0277596762102 	1.84719325744e-20
1.1337488789 	0.0169050915216 	3.75524616264e-22
1.11371035489 	0.0096302940279 	2.70078779031e-21
1.09350009564 	0.00728696755112 	-3.28962016794e-22
1.07748729413 	0.0054410408027 	-8.2175143198e-22
1.06514782573 	0.00413667472819 	1.58166221402e-22
1.05555300423 	0.00337210136172 	3.69029264706e-22
1.04867565879 	0.00251202376268 	-8.0188528107e-22
1.04383967455 	0.0017424074038 	-6.87824563065e-22
1.03919379196 	-0.000379284077319 	-6.33792778516e-22
1.04232659076 	-0.000140729328042 	-2.90191136487e-22
1.04632322143 	0.000561690353688 	-2.89492001172e-23
1.05155342877 	0.00237325854542 	-2.35142340142e-22
1.05758009 	0.0061982219355 	3.04321307539e-22
1.06436943316 	0.0138307252569 	-8.83922180466e-22
1.06826193406 	0.0262240245138 	-7.29695792179e-22
1.07338692165 	0.0519212271277 	-1.01431392091e-21
1.07587760468 	0.0971074741953 	2.93954584715e-21
1.06712312003 	0.180039048321 	3.73638799036e-22
1.0673937726 	0.334769116962 	-4.88523497882e-21
0.78003066029 	0.47483836383 	-3.65261554848e-21
0.214062376607 	0.511639871438 	-8.4608744706e-22
0.242225423643 	0.356614677836 	7.87670727223e-22
0.968853302765 	0.115718210284 	-1.29992570268e-21
1.20712798503 	0.055317543982 	5.5038257185e-22
1.17734867254 	0.00702481820923 	2.428256634e-21
1.14315609539 	-0.0031624967802 	-7.16002773205e-22
1.11466267403 	-0.00521051608432 	1.20711957123e-21
1.0935910543 	-0.00723907541405 	9.89740000402e-22
1.07807675378 	-0.00404711907641 	-1.6841318613e-21
1.06516042439 	-0.00264767713649 	3.50396667009e-22
1.05557924371 	-0.00134069366735 	1.27552692441e-22
1.0489148663 	-0.000729603814788 	8.81913101492e-22
1.04421513154 	-0.000338696750156 	4.04446416105e-22
1.03904008618 	0.000171224159087 	7.2537325957e-22
1.04183109681 	0.000595672014752 	-1.55026237784e-21
1.0452001812 	0.00111915331303 	9.68278429073e-22
1.04927186922 	0.00274199851484 	5.05410825383e-24
1.05264553061 	0.00536160874375 	1.40545478235e-21
1.05442887343 	0.0097153230923 	-3.37665378606e-22
1.05354646035 	0.0193898535582 	-1.09645149821e-21
1.04442269665 	0.0359893979218 	5.01896534547e-23
1.01924068365 	0.0704659742184 	5.05483346464e-22
0.96977736306 	0.131948927886 	3.04363475747e-22
0.900299701442 	0.25641506913 	-1.41047185773e-21
0.612197506729 	0.434791670659 	3.34077059319e-23
0.275998374298 	0.519139114522 	-4.24477849723e-22
0.508738887664 	0.331152868769 	1.40242243706e-22
1.14841289354 	0.0154090272758 	-8.3658739239e-21
1.25746052775 	-0.0221870690986 	7.44210908919e-22
1.19569465766 	-0.0388623795462 	1.166949614e-21
1.14315175351 	-0.031635602509 	1.42322504998e-22
1.11151076858 	-0.0257841877573 	-2.58077781871e-21
1.08979310577 	-0.0177446670974 	-8.302358649e-22
1.07428352043 	-0.0130808314656 	2.18147256027e-21
1.06243291054 	-0.00967677328588 	-1.43011301152e-24
1.05379553286 	-0.00575186462163 	-2.05326084373e-21
1.04773017609 	-0.00400243674595 	3.47432024774e-21
1.04337935018 	-0.00206261851276 	-1.22300117341e-22
1.03877737014 	0.000619480461413 	-4.83209844311e-22
1.04144706046 	0.00109747787656 	-5.18821258619e-23
1.04439116949 	0.00180052980523 	1.50095140722e-21
1.0474807634 	0.00147345774195 	-7.13896781363e-22
1.05052350375 	0.00187499114019 	1.04706191249e-21
1.05119077858 	0.00285245218514 	-1.06482301892e-21
1.04591137587 	0.00407900837441 	1.0950986433e-22
1.03032486188 	0.00718468310265 	-3.01579392208e-24
0.986558846845 	0.0167713773795 	-7.05762700657e-22
0.913812662047 	0.0315516370046 	8.44010572072e-22
0.749874905264 	0.113727295819 	-8.80529242593e-22
0.448291884136 	0.269165694042 	-4.45059292121e-22
0.435527626088 	0.165589285635 	-2.64729868416e-22
0.830611178986 	-0.0764903292398 	-3.76971056447e-21
1.18299210275 	-0.175385361625 	1.50448616341e-22
1.25057512289 	-0.14464197111 	-4.09234587769e-21
1.17859549706 	-0.0943581408497 	3.21593645294e-21
1.12581735708 	-0.0640975288006 	2.78820831109e-23
1.10088502169 	-0.0449275194029 	5.19045774699e-22
1.08025994412 	-0.0301765047907 	-3.34341901116e-21
1.06740233752 	-0.0204184135382 	2.7441728811e-21
1.05728466997 	-0.0135651129388 	-4.79358077627e-22
1.04985256522 	-0.00972314491832 	-4.24568185195e-21
1.04555722137 	-0.0065887008356 	-1.21226992385e-22
1.04169379551 	-0.00345243864425 	8.345988748e-22
1.03814665764 	0.00132651025688 	3.00580491384e-22
1.04105221843 	0.00136761483286 	-1.52408278207e-22
1.04393971904 	0.00121397996452 	-9.1907367139e-23
1.0484894213 	0.000788286652194 	1.0953159884e-22
1.05190681639 	-0.00047165409411 	1.49999586565e-22
1.05402362616 	-0.00381376289841 	1.18302092408e-22
1.05169088969 	-0.0123032799349 	6.31787999062e-23
1.03905204391 	-0.0247889233132 	1.48436860299e-22
1.00114754086 	-0.0542143933039 	5.90330707099e-23
0.900244633761 	-0.0837016779334 	-1.7652676317e-22
0.645832369851 	-0.055735160605 	5.08421667102e-22
0.50787066205 	-0.0926913139179 	4.18629397106e-22
0.631995514049 	-0.236198361308 	-5.49657421885e-22
0.941593215766 	-0.354730615355 	2.0123497221e-21
1.13373876494 	-0.31172308028 	2.24388503264e-21
1.16727498899 	-0.218314067554 	2.0479771982e-22
1.12130747471 	-0.131478860329 	-1.20799898718e-22
1.0937547859 	-0.0849553848512 	-1.01813522254e-22
1.07979144926 	-0.0576579570116 	1.43068258952e-22
1.06696752434 	-0.0374628132135 	1.07364379195e-21
1.05824050598 	-0.0252355086095 	3.80441634864e-22
1.05067959395 	-0.0166773386369 	2.92941542219e-22
1.04561547291 	-0.010986511478 	-5.29012581955e-22
1.0424082707 	-0.00753737279447 	-1.37119741026e-21
1.03915840808 	-0.0044634626607 	-9.24943260567e-22
1.03757484125 	0.00188990273374 	-4.86010105756e-22
1.04006676024 	0.00183520149264 	1.51942297708e-22
1.04447809629 	0.00232362574117 	3.26719805353e-23
1.04959056233 	0.00109861689282 	6.22790563542e-24
1.05555309869 	-0.000597018667928 	9.90035600265e-23
1.0635543314 	-0.00688613544734 	3.27620967281e-22
1.06989081095 	-0.0191770618373 	-4.87355018843e-22
1.08279036628 	-0.0429732957932 	5.34716057952e-24
1.07550509911 	-0.115236613774 	-4.03300463167e-23
0.946203738153 	-0.173970526667 	-1.96720990608e-23
0.692121845706 	-0.29140492926 	9.37396250146e-23
0.607763583231 	-0.372383829443 	2.62413664483e-24
0.709649460588 	-0.419110427222 	-3.99033591059e-22
0.909577234537 	-0.411987904192 	8.31360665856e-22
1.03180101985 	-0.342339847964 	3.59045129748e-22
1.05633786457 	-0.222049176614 	-4.18414287114e-24
1.04682738043 	-0.143227927019 	3.23415320478e-23
1.05453972598 	-0.0898465628528 	5.42119754351e-23
1.05351643149 	-0.0599168893516 	1.22837456714e-21
1.05052227393 	-0.03817499621 	-3.34507571157e-22
1.04791791762 	-0.0256767768404 	-5.59967254339e-22
1.04441248032 	-0.0170905815796 	8.31110276748e-23
1.04116018774 	-0.0113455482815 	-1.61149214349e-23
1.03819398918 	-0.00750043920044 	1.19371812629e-21
1.03635007935 	-0.00476873340836 	1.9617395363e-22
1.03668474345 	0.00162352590604 	-3.69366222737e-24
1.04006848373 	0.00291613537565 	-9.81954448611e-24
1.0450239697 	0.00345401150885 	1.08229676163e-23
1.05143512278 	0.00306483696105 	4.09963380551e-23
1.06073680001 	0.00260118535899 	6.16987177934e-24
1.07258380026 	-0.00334892818732 	-2.00922419656e-22
1.09240063656 	-0.0121980551455 	-2.51673811623e-23
1.12848683687 	-0.0357171416795 	3.01217835275e-22
1.15311430263 	-0.0834686153502 	8.96156305213e-25
1.05238942634 	-0.177794197621 	-1.27485127356e-22
0.825073652194 	-0.324281199364 	1.1252443493e-23
0.674875507138 	-0.429540097749 	0
0.695979595811 	-0.450901763184 	-9.99472290871e-36
0.820840867436 	-0.394271826185 	-1.58449603108e-24
0.920607005615 	-0.286218663008 	-2.29178119672e-22
0.960777802817 	-0.18562233656 	1.44403195138e-22
0.991430256295 	-0.116815466473 	1.99844256474e-22
1.01690396073 	-0.0746672419704 	-3.42214621427e-22
1.0298522628 	-0.0486882417973 	3.0277871706e-23
1.03433656153 	-0.0317698541707 	4.41598201469e-22
1.03699648414 	-0.0214002975716 	2.11361943336e-22
1.03728655529 	-0.0146169519158 	1.54334078065e-24
1.03616456001 	-0.00977364066245 	2.34299157532e-22
1.03508150909 	-0.00640338004249 	-7.81149699444e-22
1.03381170828 	-0.00380417771625 	-7.34796944528e-22
1.0356022866 	0.00266358727646 	0
1.03895046105 	0.0043355992544 	0
1.04395893298 	0.00595552292262 	0
1.05068765775 	0.00698336643047 	0
1.06143674112 	0.00974261702418 	0
1.07661180225 	0.00915104549952 	0
1.1008954043 	0.00945045871619 	0
1.14746553855 	0.00964388382045 	0
1.2026321457 	0.00222404631543 	0
1.15828992369 	-0.0335660686151 	0
0.958399123694 	-0.141779073084 	0
0.757326738847 	-0.26993324058 	0
0.688327607684 	-0.327381568184 	0
0.734650194355 	-0.298257544124 	0
0.816533517406 	-0.209100427901 	0
0.886816020782 	-0.126773476562 	0
0.946020295517 	-0.0797614640189 	0
0.988641626135 	-0.0499952216879 	0
1.0130638654 	-0.031120379336 	0
1.02448517848 	-0.0204807752944 	0
1.03069696445 	-0.0142685911526 	0
1.03318950186 	-0.00992489077986 	0
1.03343239364 	-0.00701472225534 	0
1.03300684076 	-0.00491039397048 	0
1.03221694849 	-0.00305766479969 	0
1.03391928356 	0.00362926478523 	0
1.03687227381 	0.00577628295003 	0
1.04158110654 	0.00858817320227 	0
1.04745085503 	0.0116488103942 	0
1.05744771533 	0.0172155888186 	0
1.07143899611 	0.0235702875968 	0
1.09128147697 	0.0341983011086 	0
1.13088094468 	0.0538102781613 	0
1.18796321036 	0.0855009861917 	0
1.18640263787 	0.120730894544 	0
1.06189299767 	0.101742868248 	0
0.872904034446 	0.0150977038854 	0
0.736624922558 	-0.0563110386497 	0
0.710008493961 	-0.0753917883828 	0
0.754028747048 	-0.0479998578818 	0
0.834775973244 	-0.0112200651353 	0
0.918315746813 	-0.000315157591655 	0
0.972316252371 	0.000359306954465 	0
1.00401167865 	-0.000863328320896 	0
1.02050622965 	-0.00266569064304 	0
1.0281898728 	-0.00376808313584 	0
1.03144024212 	-0.0037992429276 	0
1.0321647326 	-0.00349099919577 	0
1.03178244642 	-0.00289705065761 	0
1.0310008561 	-0.00200884187516 	0
1.03186841818 	0.00418277689678 	0
1.03419706221 	0.00672845166822 	0
1.03802386197 	0.0103563806485 	0
1.04255570967 	0.015122287871 	0
1.05007977533 	0.0223679126467 	0
1.06015109827 	0.0332079375141 	0
1.07268812549 	0.0498140318531 	0
1.09660469282 	0.0761642896879 	0
1.13210688932 	0.123449543174 	0
1.1377871585 	0.193062772049 	0
1.06904704817 	0.240964738843 	0
0.927554416073 	0.233022247176 	0
0.787781458647 	0.200403462625 	0
0.733061044716 	0.164437569625 	0
0.75451066065 	0.142417298856 	0
0.834789311097 	0.128052545042 	0
0.931080423116 	0.0978319049629 	0
0.988165704801 	0.0612905693359 	0
1.01530767715 	0.0322662191802 	0
1.02713910324 	0.0158898710776 	0
1.03149419083 	0.00654651553486 	0
1.03288777039 	0.00182421349279 	0
1.03246968124 	-0.000323920138107 	0
1.03145257366 	-0.00107932467613 	0
1.03032993422 	-0.00101240604538 	0
1.02942003365 	0.00424501913283 	0
1.03098300301 	0.00688181879801 	0
1.03344566418 	0.0106484918599 	0
1.03622882345 	0.0160371667533 	0
1.04022280754 	0.0239360571579 	0
1.0450064866 	0.0365211088293 	0
1.04999011059 	0.0557105668433 	0
1.05742125664 	0.0845063289138 	0
1.06624984713 	0.134668549754 	0
1.05915111522 	0.208526149781 	0
1.01638329604 	0.286512685067 	0
0.916554442849 	0.329738285505 	0
0.808700839482 	0.32782539939 	0
0.767596142335 	0.299741913451 	0
0.789936365927 	0.263831927913 	0
0.877729940157 	0.219059739843 	0
0.983178873657 	0.157900124856 	0
1.03697822582 	0.094057616237 	0
1.0483374666 	0.0490940541865 	0
1.04496680836 	0.0256761111796 	0
1.04104494047 	0.0121119898101 	0
1.03766756643 	0.00517468631877 	0
1.03455862897 	0.00161960688606 	0
1.03215519437 	9.66581971149e-06 	0
1.03031444829 	-0.000412082038342 	0
1.02692714663 	0.00359633252275 	0
1.02770045948 	0.00583201021888 	0
1.02861206604 	0.00895650868223 	0
1.02918448565 	0.0136502711912 	0
1.02904029763 	0.0209653641826 	0
1.02765869672 	0.0329924669609 	0
1.02382998231 	0.0525718290965 	0
1.01632625818 	0.0824408684171 	0
1.00384704816 	0.129911203268 	0
0.977118277137 	0.195951765492 	0
0.940295968213 	0.278522967251 	0
0.879960351453 	0.343300706203 	0
0.814973927882 	0.35614678411 	0
0.796467256744 	0.334894583132 	0
0.832763480999 	0.293619319583 	0
0.940964278904 	0.226325928592 	0
1.05811752416 	0.142751229507 	0
1.09855073641 	0.0751054497782 	0
1.08530163932 	0.0392360760117 	0
1.06509877683 	0.0209973737274 	0
1.0522516466 	0.00991733125711 	0
1.04354853648 	0.00454624780079 	0
1.03757108462 	0.00142520125402 	0
1.03336817356 	2.57590433716e-05 	0
1.03057896178 	-0.00034963254833 	0
1.02507790058 	0.00220161964876 	0
1.02528560356 	0.00352089331508 	0
1.02502111217 	0.00533053429733 	0
1.02359307943 	0.00806136474028 	0
1.01977304169 	0.0126748626755 	0
1.01231534917 	0.0204757525866 	0
0.99923614212 	0.034750862373 	0
0.979447786305 	0.0573609025283 	0
0.950962547062 	0.0928111122208 	0
0.905858809442 	0.143548968582 	0
0.863248870614 	0.208458657829 	0
0.832631708257 	0.274528292207 	0
0.812622933099 	0.300661238616 	0
0.82727481423 	0.280279082271 	0
0.899325934794 	0.218797033576 	0
1.03129662752 	0.128773587549 	0
1.13420475368 	0.0551288613583 	0
1.14078111452 	0.0199792809146 	0
1.10468845887 	0.0105946832651 	0
1.07618107209 	0.00534875702371 	0
1.05858379261 	0.00144843127845 	0
1.0468728979 	0.00016357159895 	0
1.03944349332 	-0.000823396598875 	0
1.03408368563 	-0.000923287833022 	0
1.03067175009 	-0.000763694710014 	0
1.02433624221 	0.000574765625117 	0
1.02445632515 	0.00074608560141 	0
1.02390795273 	0.000776390238286 	0
1.02183956137 	0.000483428210242 	0
1.01656535931 	-3.63485378334e-05 	0
1.00585144703 	-0.000965037636664 	0
0.986985171419 	-0.000606326207757 	0
0.958922041494 	0.002484296775 	0
0.917674989327 	0.0147754102208 	0
0.859652438979 	0.0394580170514 	0
0.811128436999 	0.0699513444382 	0
0.794483143545 	0.102831594715 	0
0.815217404396 	0.117728069037 	0
0.880447869598 	0.0961181985238 	0
0.988751158031 	0.0362699484777 	0
1.10974295064 	-0.0271445344536 	0
1.16669483927 	-0.0461117597227 	0
1.14268634512 	-0.0337879705934 	0
1.10121434944 	-0.0195517006402 	0
1.07489239094 	-0.0123420525283 	0
1.05773808218 	-0.0086476009885 	0
1.04599256003 	-0.00571708205436 	0
1.03877907734 	-0.00408689628326 	0
1.03345188979 	-0.00257284182675 	0
1.03012523623 	-0.00163686506176 	0
1.02465209642 	-0.00069181202789 	0
1.0252506891 	-0.00156545701139 	0
1.02551479938 	-0.00340292643518 	0
1.02486399405 	-0.00691311600412 	0
1.02171584314 	-0.0131197353972 	0
1.01364802885 	-0.0239645697582 	0
0.996110678903 	-0.0412054278266 	0
0.964541142483 	-0.0631288945206 	0
0.913268111665 	-0.0786720026146 	0
0.848429568235 	-0.0842123384293 	0
0.801421587894 	-0.0884917131494 	0
0.790947388674 	-0.0981941259668 	0
0.828680118887 	-0.109816597489 	0
0.919552920901 	-0.124324859679 	0
1.03030054178 	-0.141883521385 	0
1.1169547903 	-0.140228057331 	0
1.14101018546 	-0.107186675251 	0
1.11419860049 	-0.067261977355 	0
1.08391792816 	-0.0408631596536 	0
1.06532932394 	-0.0259418164034 	0
1.05181695108 	-0.0167457943942 	0
1.04208384841 	-0.0107501344713 	0
1.03606351066 	-0.00706060326289 	0
1.03151636133 	-0.00433269069834 	0
1.02874593689 	-0.00263097085503 	0
1.02567445062 	-0.00144938701006 	0
1.02726348521 	-0.00301347455448 	0
1.02926552684 	-0.00606902879805 	0
1.0316646854 	-0.011489932839 	0
1.03372649311 	-0.0208368725691 	0
1.0341992121 	-0.0372321832228 	0
1.02612386051 	-0.0654268695443 	0
0.996519025199 	-0.106627827118 	0
0.938218447484 	-0.146738710054 	0
0.867954276194 	-0.176661860027 	0
0.822616328383 	-0.203283038877 	0
0.812970688205 	-0.230046624036 	0
0.841600588303 	-0.249964749755 	0
0.916861191413 	-0.252890017428 	0
1.00685690004 	-0.232336299186 	0
1.07237719305 	-0.189080959758 	0
1.08964713712 	-0.133537725373 	0
1.07438559655 	-0.0851365605848 	0
1.06041187991 	-0.0537461116406 	0
1.05108818221 	-0.0341239973542 	0
1.04279374647 	-0.0214400244434 	0
1.03643383037 	-0.0135097246673 	0
1.03230001101 	-0.00857966676221 	0
1.02897755822 	-0.00523823385635 	0
1.02691631565 	-0.00311445532725 	0
1.02701731297 	-0.00168258391248 	0
1.02978645284 	-0.00332945323792 	0
1.03380986501 	-0.00629874677422 	0
1.03956688583 	-0.0114055682845 	0
1.04757771244 	-0.0198119671093 	0
1.05849940126 	-0.0348070000626 	0
1.06596737391 	-0.0605538240048 	0
1.04553587823 	-0.106618628177 	0
0.983224388691 	-0.164186083515 	0
0.904758693162 	-0.212646190165 	0
0.854148036878 	-0.251245052671 	0
0.838408081629 	-0.279858708164 	0
0.850248409296 	-0.297080712986 	0
0.897495324139 	-0.293033294 	0
0.958925226848 	-0.256007886028 	0
1.01085670519 	-0.197263010488 	0
1.03340141727 	-0.136681813173 	0
1.03266164606 	-0.0895958375208 	0
1.03300072325 	-0.0574554063355 	0
1.03322574534 	-0.035444940648 	0
1.0314619875 	-0.0215154400755 	0
1.02956624949 	-0.013100480382 	0
1.02797713508 	-0.00803357161413 	0
1.02627140695 	-0.00479134243141 	0
1.02504440273 	-0.00278665703725 	0
1.02828214355 	-0.00119705010138 	0
1.0319205108 	-0.00224589606742 	0
1.03744255512 	-0.00395240315877 	0
1.04550213746 	-0.00695338857861 	0
1.05768279039 	-0.0114404897498 	0
1.075820505 	-0.019797919534 	0
1.09803012054 	-0.0327683815372 	0
1.09935201045 	-0.0625508418389 	0
1.04564234809 	-0.119039370176 	0
0.955725244802 	-0.184051942226 	0
0.888448167142 	-0.238107246188 	0
0.858140034871 	-0.269524896225 	0
0.852600457336 	-0.28169749862 	0
0.872237931876 	-0.268000463443 	0
0.90499017148 	-0.222491007409 	0
0.947466441 	-0.164593221447 	0
0.980780184128 	-0.110424323679 	0
0.994524181143 	-0.0714827716762 	0
1.00577666977 	-0.0451106380979 	0
1.0148704699 	-0.0263548267996 	0
1.02017376537 	-0.015335424355 	0
1.02290790402 	-0.00897457614738 	0
1.02392385948 	-0.00534323296318 	0
1.02381889407 	-0.00307436513168 	0
1.0234341391 	-0.00175139085787 	0
1.0288881111 	-6.27499580535e-05 	0
1.0327670505 	-7.43370583449e-05 	0
1.03882179954 	-5.35230863696e-06 	0
1.04753041493 	-0.000178562025393 	0
1.06099706138 	9.4795467467e-05 	0
1.08079595047 	-8.33677302605e-05 	0
1.10883978557 	0.00142438159037 	0
1.13152819661 	-0.000371302037192 	0
1.10501676376 	-0.0241377564389 	0
1.02446923278 	-0.0753751989382 	0
0.941005499445 	-0.13475771129 	0
0.882079254448 	-0.16968279585 	0
0.848309525171 	-0.176091556796 	0
0.840898901491 	-0.157911516246 	0
0.856512192474 	-0.122416155319 	0
0.896543218108 	-0.0844930300428 	0
0.940203034517 	-0.0485449642006 	0
0.967571349695 	-0.0253394864345 	0
0.987395464307 	-0.0129606435825 	0
1.00320416171 	-0.00573293995781 	0
1.01373282628 	-0.00286128606591 	0
1.01934565705 	-0.00154245811636 	0
1.02181263023 	-0.000960452684908 	0
1.02254145723 	-0.000533878479122 	0
1.02259578567 	-0.000345215451969 	0
1.02842244125 	0.00125308672425 	0
1.03197199788 	0.00227406822388 	0
1.03762099982 	0.00400925563624 	0
1.045538287 	0.00652442285952 	0
1.057778345 	0.0110111991414 	0
1.07496316132 	0.0178994504966 	0
1.09892654487 	0.0301206753098 	0
1.12515211623 	0.0501885757015 	0
1.12161590414 	0.0668602519551 	0
1.06986944691 	0.0594855370214 	0
0.988433921711 	0.0307989588537 	0
0.905439198964 	0.0119086311664 	0
0.846388841098 	0.00904668296425 	0
0.823906351248 	0.012417182976 	0
0.834319931806 	0.0173947497293 	0
0.872694912563 	0.0242533885115 	0