1.01417314313 	-0.00792558633392 	-1.59456450192e-21
1.01553864039 	-0.0124281018718 	-1.21589888858e-21
1.01718452472 	-0.017519129191 	4.56185115636e-22
1.01913670153 	-0.0235999135805 	-1.08939231605e-23
1.02100708495 	-0.030824688261 	-4.89988665441e-22
1.02226733018 	-0.0396038996596 	-2.59519719333e-22
1.02187765378 	-0.0498146574593 	-2.93482021487e-22
1.01782204945 	-0.0601593605358 	-1.49382095996e-21
1.00833829925 	-0.0725501174036 	2.13858156842e-20
0.988784489618 	-0.0792697630526 	1.62068009757e-21
0.960374839097 	-0.0745773473842 	5.18933493843e-23
0.930580448749 	-0.0498515572948 	2.00663806164e-21
0.916393744284 	-0.00625435220989 	-3.53748848458e-24
0.929449851885 	0.0376574477976 	2.30186120922e-22
0.957994149314 	0.063097224497 	-1.49728445581e-21
0.985302140593 	0.0692858694487 	1.74600177953e-21
1.00416034388 	0.0644491342459 	1.72629590898e-20
1.01379829137 	0.054147095855 	-1.35059410542e-21
1.01825780546 	0.0457241847217 	-1.33806316044e-21
1.01933608098 	0.0370632504938 	2.78281668693e-22
1.0187577082 	0.0293738760133 	6.25567661822e-22
1.01754306217 	0.0228530680787 	-5.46878719804e-24
1.01616126172 	0.0172229667442 	-3.31301370178e-22
1.01493501063 	0.0123602934561 	7.41180204154e-22
1.0138961314 	0.0079174294826 	7.43116605754e-22
1.01858137671 	-0.00828090501471 	5.46741776924e-22
1.02048576652 	-0.0129789398383 	1.09542168571e-21
1.02303491418 	-0.0185394946788 	6.60782292279e-22
1.02613827776 	-0.025208248996 	-1.45014806026e-22
1.02959949725 	-0.0334267265782 	7.34143595756e-22
1.0327784958 	-0.0439090699404 	-3.14638819027e-22
1.03449774593 	-0.057095383746 	5.49351656142e-22
1.03273322863 	-0.0739700174512 	1.89905612522e-22
1.0230339276 	-0.094416664446 	-6.32186418898e-22
0.998655417499 	-0.114358266751 	-2.70957997334e-21
0.950687277887 	-0.123822927185 	-3.85704964056e-21
0.882910310517 	-0.0938775193822 	1.01403421158e-20
0.844855318501 	-0.00671175996599 	1.66619141829e-22
0.881564698883 	0.0802271709563 	9.52590901253e-21
0.947008433864 	0.110696133007 	-7.98806105893e-21
0.993099252503 	0.103227229944 	-1.95512250015e-21
1.01657945826 	0.0859463191006 	-4.35173553325e-22
1.02639606837 	0.0683353463272 	-2.66129347491e-22
1.02903696396 	0.0538225233549 	-5.46031049678e-22
1.02845040674 	0.0422720155588 	2.78853087979e-22
1.02646697319 	0.0328724969301 	-6.51054863555e-22
1.02405578312 	0.0252171268871 	1.11330598585e-22
1.02176789001 	0.0188320944535 	-4.01337546563e-22
1.01982066705 	0.013322014317 	-6.36126193196e-22
1.01832684014 	0.00855168692427 	-9.59788856344e-23
1.02300672055 	-0.00823803767196 	1.11837053674e-23
1.02561002605 	-0.0127490432776 	4.68266721101e-22
1.02915959273 	-0.0183959332773 	-4.20257453194e-22
1.03367011256 	-0.0252024571221 	-1.85730541427e-24
1.03920031419 	-0.0337931315962 	2.00451583567e-22
1.04534574535 	-0.0452513290611 	1.48244239844e-22
1.05117299139 	-0.060831422007 	-3.37240891031e-22
1.05468980904 	-0.0826424098342 	-9.50075085482e-22
1.05152919106 	-0.113257585877 	-7.69539824014e-23
1.03158537396 	-0.15662023511 	9.60023620854e-22
0.967827647441 	-0.207937052001 	1.46811769595e-20
0.810242889005 	-0.214645356811 	-2.04853963898e-21
0.667632719719 	-0.00569339098792 	-2.65076988946e-21
0.81045381882 	0.200275806683 	-3.67890052137e-21
0.962723751892 	0.193178213651 	1.05234330942e-20
1.02269820989 	0.144636453811 	-5.61036954599e-22
1.04154937517 	0.105567835035 	-1.30185046515e-23
1.04538915095 	0.078700259457 	5.38373163576e-22
1.04362094855 	0.0595748973754 	1.40211336124e-22
1.03978565204 	0.0456176753079 	-3.80927574624e-23
1.03543901755 	0.0348990576451 	-1.15127612676e-22
1.03135252947 	0.0264716978152 	3.1322370759e-25
1.02789003915 	0.0196061731185 	1.96934092563e-22
1.02509042875 	0.013731893725 	-2.44265338225e-22
1.02298816283 	0.00883177757349 	-2.68867406583e-22
1.02731540099 	-0.00764272579113 	4.12847666519e-23
1.03056065212 	-0.011832007997 	-3.30552735179e-24
1.03507728044 	-0.0169986257715 	7.38713459519e-23
1.04114489337 	-0.0233007738542 	-2.14122152733e-23
1.04893557815 	-0.0313310825747 	-3.29008813223e-23
1.05864890289 	-0.0424826898914 	-3.1398003814e-23
1.07010854957 	-0.0584246311088 	-1.32535356162e-22
1.08263848719 	-0.0822365384205 	-3.42686364108e-22
1.0943232723 	-0.119579612508 	3.2718817342e-22
1.09955472099 	-0.182912164215 	-8.65657491357e-22
1.07920413609 	-0.306047539069 	5.2354289882e-22
0.86445861881 	-0.594584453908 	-1.25282548029e-21
0.871452649989 	0.572791046557 	7.39577449219e-22
1.07126152316 	0.286379711882 	-1.47708032856e-21
1.08524148418 	0.169965833079 	-1.56308960735e-21
1.07904189225 	0.113888423947 	-4.46600712658e-22
1.0697398849 	0.0818930244512 	6.9204171597e-22
1.06057416795 	0.0608733627944 	2.70833072463e-22
1.05227649034 	0.0460250269496 	-2.50369462612e-23
1.04508700917 	0.0348657718084 	-5.11846909153e-23
1.03905979488 	0.0263071075556 	-4.13016373319e-23
1.03421619221 	0.0193715916943 	-3.89767486821e-23
1.03049172841 	0.0135555046383 	-2.03564361244e-23
1.02775595818 	0.00867922416444 	4.91348581762e-25
1.03122753236 	-0.00648614576802 	-1.711405199e-23
1.0349621491 	-0.0102509691947 	2.98404737338e-24
1.04027998936 	-0.0144478374282 	-4.06235837062e-24
1.04772708586 	-0.0195727326051 	6.47936797713e-25
1.05758962144 	-0.0260948859355 	-5.44548830265e-23
1.07081871639 	-0.0351377637645 	-4.34955181897e-24
1.08822879847 	-0.0483691332812 	-6.14138576713e-24
1.11093808409 	-0.0688959085103 	3.07090907692e-23
1.14105641423 	-0.102587980129 	-5.14990998845e-22
1.18343340634 	-0.160118047273 	-2.31387706113e-22
1.26351018749 	-0.261457662402 	2.07380203255e-22
0.0433193269725 	0.00137289145421 	-1.99738477953e-21
1.24835368774 	0.232649870291 	-2.47658840824e-22
1.15813396136 	0.146271366672 	3.37094984641e-22
1.11768227917 	0.101867398219 	9.03833137843e-22
1.09393577533 	0.0750374570586 	-2.66428032282e-22
1.07738432187 	0.0565576767664 	-3.13762012729e-24
1.06468718778 	0.0429799910726 	6.41262737177e-24
1.05458996343 	0.0325959632982 	7.69365947804e-23
1.04663161568 	0.0245366506753 	-2.3222839646e-25
1.04037924767 	0.0180275523418 	4.35037567934e-23
1.03572707576 	0.0126826002068 	4.01618095817e-23
1.03238184555 	0.00793772286486 	-1.30378720359e-23
1.03428493185 	-0.0053734789618 	1.56569967274e-25
1.03836484451 	-0.00799817982837 	1.13691334735e-23
1.04427831047 	-0.0110557714235 	-3.99697902577e-24
1.0525649763 	-0.0144390643959 	1.11955727326e-23
1.06377131575 	-0.0185107109716 	1.22692712488e-22
1.07950329143 	-0.0238004814831 	2.14814581662e-22
1.1012757963 	-0.0313272584936 	-1.27717618905e-21
1.13200629565 	-0.0432208859232 	4.76181102634e-22
1.17609588532 	-0.0631426501197 	1.71909582001e-21
1.2408750972 	-0.0962921836866 	-1.05396966382e-20
1.31973780088 	-0.135459042879 	2.75996586773e-20
0.0853886041989 	-0.0429559552526 	1.34953093788e-21
-0.000419796483128 	-0.00371663925807 	-4.19931633441e-22
0.18493891312 	0.00913420292061 	-4.5509674046e-23
1.28364208405 	0.0825360680517 	-3.39138176841e-20
1.19184318098 	0.0859370049165 	1.00004047257e-20
1.14149367175 	0.0744304903783 	9.11291729233e-22
1.11193904546 	0.0604160526931 	3.01529851866e-22
1.09119959141 	0.0475178398805 	1.33342517276e-21
1.0755283303 	0.0367581652321 	-2.34329454777e-22
1.06307674313 	0.0280573403315 	-2.02856057001e-22
1.05345189085 	0.0211434665517 	-9.33377548912e-24
1.04595109305 	0.0155843440317 	-2.54896381991e-23
1.04037223114 	0.0108786339248 	-6.52819877651e-23
1.03641970381 	0.00701034528737 	-1.37469186049e-22
1.03663892146 	-0.00388930665786 	1.25632958222e-24
1.04066409704 	-0.0055161492839 	-2.50187022958e-22
1.04675338266 	-0.0073165387468 	3.25504695799e-22
1.05517638191 	-0.00876781154848 	-2.96106460265e-24
1.066718881 	-0.00993678970863 	-3.44257352577e-22
1.0829073479 	-0.0105816147112 	-3.76539819544e-22
1.10589650215 	-0.0106068905713 	1.10965579876e-21
1.13969602727 	-0.0101600864633 	4.06652217462e-21
1.19001075721 	-0.0103986561716 	1.01546413225e-21
1.26821276639 	-0.0172548738595 	4.01519293516e-21
1.32449389153 	-0.0320941208966 	2.98450995315e-21
0.339341704894 	-0.169160260543 	-4.05230572424e-21
-0.17813276951 	-0.279966777737 	-3.1928810503e-21
0.256920788955 	-0.179341833063 	-6.6252994761e-21
1.19822156874 	-0.0304339554493 	-2.6499097506e-21
1.17910560372 	0.0359633768564 	-2.78037507328e-21
1.14702166344 	0.0480105816518 	-1.09493853378e-22
1.12190795879 	0.0439770815104 	-3.95595012732e-21
1.10115634987 	0.0361167128145 	-1.23725712974e-21
1.0838980121 	0.0283721300146 	3.20284403049e-22
1.07000339504 	0.0217610790642 	4.09004283663e-22
1.05905034394 	0.0163762873622 	4.48283899964e-24
1.05053904958 	0.0121601747656 	-5.29057787619e-22
1.04419565623 	0.00840387491778 	4.67518551906e-22
1.0398643595 	0.00549630191168 	4.1358547093e-22
1.0382126609 	-0.00241203151162 	-1.92849304811e-22
1.04197590729 	-0.00321205152914 	-5.70954470205e-22
1.04768519428 	-0.00381565974173 	-4.0586795758e-22
1.05549584011 	-0.00356625222519 	6.78947248476e-23
1.06598221715 	-0.00202964349029 	-6.95655723372e-22
1.0805268864 	0.00174946571028 	5.10258476208e-22
1.10082385637 	0.00927710765677 	-1.29854778057e-21
1.13008788211 	0.0231692454164 	-9.49647556289e-23
1.1807349056 	0.045919488142 	-3.18705172375e-21
1.25364008928 	0.0801530597006 	-3.96699420238e-21
1.32010391625 	0.121518589621 	9.33831396427e-21
0.632596905858 	-0.0251624635039 	1.47757049412e-20
-0.130370704321 	-0.23215719957 	6.60492699518e-22
0.100440544825 	-0.237031810335 	6.28639446746e-21
1.04744558098 	-0.0432918754999 	-1.16631632792e-21
1.150386282 	0.027493801989 	-1.77421992539e-21
1.14672739297 	0.033264305261 	-1.29794181713e-21
1.12753138173 	0.0297024425869 	2.76888568221e-22
1.10799585688 	0.0238617691411 	1.66566413249e-21
1.09025440153 	0.0184490726595 	-6.16782760214e-22
1.07482383815 	0.0141388624187 	9.68124592933e-22
1.06303640348 	0.0105964764146 	-1.13875539101e-22
1.05382261574 	0.00797564497484 	6.54365831883e-22
1.04703477845 	0.00552375144895 	8.52482052895e-22
1.04240723146 	0.00370633364741 	-6.4015840881e-24
1.03896086648 	-0.00128191274484 	5.60946255482e-22
1.04249239632 	-0.00142056231756 	5.19505227351e-22
1.04736417096 	-0.00109853158188 	-2.50775308022e-22
1.05399126072 	0.000313397826613 	-1.04524596703e-22
1.06236262586 	0.00369881844584 	3.39104905286e-22
1.07334646203 	0.0103907671074 	1.4808625305e-22
1.08784026338 	0.0239875326786 	-2.28471102327e-22
1.1053524228 	0.0449222559763 	7.79390903587e-22
1.13531870711 	0.0867555521967 	2.81000183622e-20
1.18124118818 	0.160569583201 	2.87057376558e-21
1.23496258366 	0.288110919427 	1.1409499154e-21
0.823097993704 	0.348730751212 	5.81115719681e-21
0.062237195988 	0.206078972921 	-2.85279899635e-22
0.0697568619415 	0.0378808720806 	1.45572267893e-21
0.935431274687 	0.0385566219844 	-2.37844674762e-22
1.15336713856 	0.0510422212363 	7.91580568988e-22
1.15430056098 	0.0277156994897 	1.83678555691e-20
1.13387939004 	0.01684824841 	3.73817151134e-22
1.11377687608 	0.00957618033283 	2.67259382749e-21
1.09353220698 	0.00724780116006 	-3.23326983716e-22
1.07750223366 	0.00541327547176 	-8.05049552021e-22
1.06515378957 	0.0041177020926 	1.54805781824e-22
1.05555494539 	0.00335925665926 	3.59533575892e-22
1.04867553856 	0.00250389058705 	-7.76484902556e-22
1.04383844738 	0.00173789712791 	-6.62729829713e-22
1.03919484231 	-0.000383670943625 	-7.07828545807e-22
1.04232739687 	-0.000148864899585 	-3.11618698663e-22
1.0463232563 	0.000547596299854 	-3.77393740227e-23
1.05155127959 	0.00235023238382 	-2.47914728143e-22
1.05757125554 	0.00615901890555 	2.98161615484e-22
1.06434445087 	0.0137730961297 	-9.01976618335e-22
1.06820951259 	0.0261389307813 	-7.47793085024e-22
1.07327414512 	0.0517970641773 	-1.02297063583e-21
1.07565216464 	0.0969352939304 	2.9545193809e-21
1.06666996845 	0.179809052891 	3.72569231177e-22
1.06666748367 	0.334497957576 	-4.88106790672e-21
0.779173287941 	0.474852837344 	-3.64391466707e-21
0.213471667893 	0.512396086544 	-8.44358728511e-22
0.243060499824 	0.357341331237 	7.94720663148e-22
0.970177902533 	0.11547529224 	-1.30037889222e-21
1.20768828917 	0.054944205059 	5.50337600295e-22
1.17756879078 	0.00678226924304 	2.41420613037e-21
1.14325395316 	-0.00331865637722 	-7.10954043659e-22
1.11469860256 	-0.00530717990753 	1.18905596168e-21
1.09360298243 	-0.00730108499906 	9.75291155425e-22
1.07807823808 	-0.00408632619878 	-1.65459077562e-21
1.06515706908 	-0.00267195698905 	3.4146283726e-22
1.05557494841 	-0.0013556833084 	1.21810830294e-22
1.04891047514 	-0.000738276410483 	8.52949840655e-22
1.04421088506 	-0.000343298398688 	3.88881020639e-22
1.03904380319 	0.000167475149829 	8.21156400775e-22
1.0418367359 	0.000588472813726 	-1.7161264985e-21
1.04520787167 	0.00110611050614 	1.04792022453e-21
1.0492808004 	0.00272044418457 	5.26008015436e-24
1.0526586853 	0.00532122973647 	1.48160362841e-21
1.05443968077 	0.00964501572048 	-3.56494528141e-22
1.05354212859 	0.019273288523 	-1.13686658922e-21
1.04438691911 	0.0357907043573 	5.24887935419e-23
1.01910481858 	0.0701508295956 	5.18481658805e-22
0.969505089421 	0.131426358907 	3.05457070776e-22
0.899710376006 	0.255633831833 	-1.42145661104e-21
0.610365674727 	0.434586833829 	3.35978543645e-23
0.275637501553 	0.518219700038 	-4.24653876922e-22
0.510606544365 	0.329100272359 	1.40122927473e-22
1.14945076713 	0.014166313404 	-8.3449355848e-21
1.25771859331 	-0.0229638226564 	7.44943619692e-22
1.19568951015 	-0.0392400640059 	1.15581243445e-21
1.14315449484 	-0.0318459938756 	1.40100708609e-22
1.11148454402 	-0.025898911611 	-2.540359403e-21
1.0897717694 	-0.0178147135083 	-8.12230618e-22
1.07426447261 	-0.0131219803086 	2.13355501365e-21
1.06241790695 	-0.00969992940288 	-1.40635728028e-24
1.05378392189 	-0.00576589491764 	-1.98981122564e-21
1.04772071432 	-0.00401030342684 	3.35231922385e-21
1.0433719155 	-0.00206721981389 	-1.14942059624e-22
1.0387832785 	0.000617880443589 	-5.65555485375e-22
1.0414567359 	0.00109414910506 	-3.86949851287e-23
1.04440429181 	0.00179358191209 	1.70643019234e-21
1.04750410658 	0.00145590608807 	-7.99376049474e-22
1.0505596404 	0.00184288837884 	1.1558899061e-21
1.05124305292 	0.00278796441805 	-1.17191234157e-21
1.04598233368 	0.00395997233358 	1.21034495849e-22
1.0304043318 	0.00696741552107 	-2.95129605077e-24
0.986645829532 	0.016356936033 	-6.76630166777e-22
0.913800345888 	0.0308631681336 	8.15121999783e-22
0.749042234954 	0.113068056243 	-8.66345227491e-22
0.447582601603 	0.267580098679 	-4.35691512295e-22
0.436254577432 	0.162853116544 	-2.64706553199e-22
0.8318191772 	-0.0789266600308 	-3.74537258545e-21
1.18317284305 	-0.176591144722 	1.46131528076e-22
1.25033976822 	-0.145304870975 	-4.05113488182e-21
1.17829332934 	-0.0946840773749 	3.17937806943e-21
1.12568739187 	-0.0642773626554 	2.74832102223e-23
1.10079152625 	-0.0450282249632 	5.07043682349e-22
1.08020394311 	-0.0302328273152 	-3.25715570654e-21
1.06736156584 	-0.0204481931035 	2.66650175359e-21
1.0572583934 	-0.0135822349578 	-4.69871826699e-22
1.04983525314 	-0.00973015747478 	-4.08940135112e-21
1.04554333118 	-0.00659340167106 	-1.11790706095e-22
1.04168394899 	-0.00345477621625 	7.99262049819e-22
1.03815259521 	0.00132761700628 	3.88565902905e-22
1.04106359137 	0.00136764388727 	-1.99573517477e-22
1.0439576606 	0.00121310096367 	-1.1967932051e-22
1.04852220776 	0.000784236721649 	1.4133147502e-22
1.05195732774 	-0.000485247012097 	1.70566059127e-22
1.05411493837 	-0.00384312443284 	1.78036012161e-22
1.05183641727 	-0.012377633868 	7.08923286659e-23
1.03929718386 	-0.0249508627718 	1.47299285216e-22
1.00153043966 	-0.0546128655532 	5.89190791685e-23
0.900474400616 	-0.0843326374637 	-1.67072755712e-22
0.645638634744 	-0.0571446646621 	5.00448228511e-22
0.50803526062 	-0.0947896835357 	4.11490117255e-22
0.632461313743 	-0.238068979983 	-5.44722249103e-22
0.941737836586 	-0.355781641702 	1.99001389111e-21
1.13333831965 	-0.312187903732 	2.2189435537e-21
1.16666071631 	-0.218566670933 	1.96758152529e-22
1.12089275838 	-0.131621294155 	-1.20405573546e-22
1.09355221647 	-0.0850298181182 	-9.97798498024e-23
1.07965211023 	-0.0577078729681 	1.38475240687e-22
1.06688400143 	-0.0374798905407 	1.03653704495e-21
1.05818792382 	-0.0252455627434 	3.6091644949e-22
1.05064584858 	-0.0166807214123 	2.74068948091e-22
1.04559354247 	-0.0109880844105 	-5.06491204118e-22
1.04239279711 	-0.00753765291746 	-1.30938843037e-21
1.03914802006 	-0.00446270029767 	-8.76325137822e-22
1.0375802067 	0.00189471701108 	-7.90411371484e-22
1.04007570635 	0.00184122888645 	2.52748196342e-22
1.04449390054 	0.00233335058591 	2.44667382733e-23
1.04962172969 	0.00110902414669 	1.53446763078e-23
1.05561029135 	-0.000579137407597 	4.16633619932e-23
1.06365731819 	-0.00686260816456 	3.02593413226e-22
1.0700609307 	-0.01915627378 	-3.64912967085e-22
1.08315759059 	-0.0429186458902 	1.02736011119e-23
1.0761700692 	-0.115273450246 	-3.76799665821e-23
0.947049098835 	-0.174192162469 	-1.79526594981e-23
0.692636451856 	-0.292322760646 	7.97809045581e-23
0.607858312956 	-0.373488977815 	2.62979474164e-24
0.70953313742 	-0.419856896762 	-3.95541258172e-22
0.909286287198 	-0.412271996522 	8.11918851027e-22
1.0311065328 	-0.342331201982 	3.55242557962e-22
1.05564985085 	-0.221896638549 	-5.16577269495e-24
1.0464168173 	-0.143177914902 	3.14393917365e-23
1.05430916564 	-0.0897948568841 	5.02426635827e-23
1.05337079898 	-0.0598851081137 	1.15186643353e-21
1.0504319934 	-0.038145610512 	-3.18128067567e-22
1.04786738019 	-0.0256618706189 	-5.25736130228e-22
1.04437864245 	-0.0170783758276 	7.70796821611e-23
1.0411399682 	-0.011336801447 	-1.11072434656e-23
1.03818012888 	-0.00749511939956 	1.11863734778e-21
1.03634077249 	-0.00476473148956 	1.90706592544e-22
1.03668656112 	0.00163003364495 	-8.79429212895e-23
1.04007220307 	0.00292793676438 	-9.99803305726e-23
1.0450314506 	0.00347568931617 	3.62625058217e-23
1.05145046881 	0.00309842051514 	3.66284446604e-23
1.06077210739 	0.00266317418928 	3.16884695415e-23
1.07265339745 	-0.00325786084265 	-1.30838843894e-22
1.09252692947 	-0.0120493987108 	-1.95406814458e-23
1.12875668974 	-0.0354138361381 	2.36073490646e-22
1.15374339836 	-0.0829534534356 	2.06683574797e-23
1.05351440486 	-0.176998909332 	-9.99555468669e-23
0.825958304583 	-0.323658755531 	-1.26306108804e-23
0.674992824342 	-0.429344790052 	0
0.695551675031 	-0.450823874113 	-9.74163083389e-36
0.820078561545 	-0.394041463357 	-1.54437251873e-24
0.919843004596 	-0.285804252477 	-2.10738908068e-22
0.960214599263 	-0.185293482488 	1.27241344989e-22
0.9910832472 	-0.11661771389 	1.84196592088e-22
1.01670589503 	-0.0745272272248 	-3.02876143634e-22
1.02973448772 	-0.0485879519936 	2.69342282831e-23
1.03426607741 	-0.0317031202356 	3.987269496e-22
1.03695612417 	-0.0213584294927 	1.94778637319e-22
1.03726268905 	-0.0145882954344 	3.4854433588e-24
1.03614977596 	-0.00975626478779 	2.17188917064e-22
1.03507224635 	-0.00639293210568 	-7.21080852358e-22
1.03380559667 	-0.00379817888769 	-6.78535202149e-22
1.03559917072 	0.00267211723747 	0
1.03894658816 	0.00435074552533 	0
1.04395565833 	0.00598120056327 	0
1.05068203041 	0.00702579543702 	0
1.0614322717 	0.00981398444352 	0
1.07661284831 	0.00927187593904 	0
1.10088361704 	0.0096538588389 	0
1.14746430836 	0.0100240207459 	0
1.20281222559 	0.00293808399279 	0
1.15901129219 	-0.0323041008623 	0
0.959484169441 	-0.140083317011 	0
0.757988373733 	-0.268293125093 	0
0.68824178388 	-0.326006224785 	0
0.734031649971 	-0.29720651759 	0
0.815828712431 	-0.208326873215 	0
0.88635255479 	-0.12618493951 	0
0.945771463246 	-0.0793629717366 	0
0.988499514607 	-0.0497404998591 	0
1.0129903025 	-0.0309541503589 	0
1.02445296517 	-0.0203797826749 	0
1.03068064627 	-0.014208020462 	0
1.03318137229 	-0.00988688105471 	0
1.03342926484 	-0.00699237064098 	0
1.03300479889 	-0.00489740276168 	0
1.03221517125 	-0.00305033880961 	0
1.03391113059 	0.00363689160242 	0
1.03686044286 	0.00578953137709 	0
1.04156420106 	0.00860991236617 	0
1.04742479423 	0.0116872549291 	0
1.05740568781 	0.0172726432454 	0
1.07137553003 	0.0236695231178 	0
1.09116525061 	0.0343600206358 	0
1.13066596203 	0.0540576827178 	0
1.18767392889 	0.085951229898 	0
1.18632167925 	0.121554607043 	0
1.06238356347 	0.103220508928 	0
0.87358726218 	0.0171239674584 	0
0.736901384235 	-0.0542437639037 	0
0.709898052944 	-0.073669216649 	0
0.753759696328 	-0.0467362365698 	0
0.834585208779 	-0.010296688754 	0
0.918282414473 	0.000322723716113 	0
0.972341798865 	0.000747513261602 	0
1.0040463336 	-0.000645910383402 	0
1.02053835919 	-0.00254391909761 	0
1.02821074341 	-0.00370028105995 	0
1.03145395155 	-0.00376225847892 	0
1.03217391531 	-0.00347035040296 	0
1.03178760331 	-0.00288524032853 	0
1.03100331896 	-0.00200234484328 	0
1.03185616595 	0.00418757111874 	0
1.03417946112 	0.0067365491691 	0
1.0379969301 	0.0103688773547 	0
1.0425169277 	0.0151448397119 	0
1.05001640003 	0.0223992051071 	0
1.06005180214 	0.0332609979237 	0
1.07253274413 	0.0498970917125 	0
1.09632306817 	0.0762690432678 	0
1.13163279157 	0.123602018814 	0
1.13729627949 	0.193336568018 	0
1.06887639359 	0.241585466115 	0
0.927675114155 	0.234136090088 	0
0.787962975265 	0.201792079337 	0
0.733191713215 	0.16580490269 	0
0.75459158977 	0.143572053898 	0
0.834955484034 	0.12891342952 	0
0.931359470534 	0.0984098513609 	0
0.988440948274 	0.061614127108 	0
1.0154995507 	0.0324270942357 	0
1.02725000547 	0.0159767290871 	0
1.03155788832 	0.00659142082064 	0
1.03292407101 	0.0018473439319 	0
1.03248981838 	-0.000311508363798 	0
1.03146382395 	-0.00107266199218 	0
1.03033605264 	-0.00100894093187 	0
1.02940539072 	0.00424531021905 	0
1.03096244005 	0.00688215725517 	0
1.03341386472 	0.0106478397259 	0
1.03618262591 	0.0160378252136 	0
1.04014766385 	0.0239381760194 	0
1.04488853996 	0.0365275021337 	0
1.04981249744 	0.0557295237594 	0
1.0571273411 	0.0845374744229 	0
1.06577176825 	0.134693707721 	0
1.05856061786 	0.20853162809 	0
1.01593610563 	0.286659545249 	0
0.916377388652 	0.330153196043 	0
0.808743115642 	0.32838831061 	0
0.767757871847 	0.300357111969 	0
0.79017520395 	0.264393401288 	0
0.878125510938 	0.219435748504 	0
0.983692734465 	0.158053011253 	0
1.03742884938 	0.0940691153483 	0
1.04861933856 	0.0490847463671 	0
1.04511868522 	0.025672410246 	0
1.04113126257 	0.0121078532554 	0
1.03771514828 	0.0051735366138 	0
1.03458505076 	0.00161851101537 	0
1.03216971023 	8.57400943677e-06 	0
1.03032211898 	-0.000412927300918 	0
1.0269138908 	0.00359108354274 	0
1.02768207875 	0.00582294301667 	0
1.0285830938 	0.00894093561507 	0
1.02913983653 	0.013625908521 	0
1.02896576052 	0.0209308735509 	0
1.02753787237 	0.0329414728785 	0
1.02364097955 	0.0525069715811 	0
1.016036778 	0.0823599897496 	0
1.00341585076 	0.129780236658 	0
0.976545587939 	0.195747778643 	0
0.939733508653 	0.278301147067 	0
0.879637571407 	0.343197868765 	0
0.814924881748 	0.35616297471 	0
0.796574203789 	0.334934620621 	0
0.833071963844 	0.293565734028 	0
0.941571421401 	0.226012811935 	0
1.05878763144 	0.142297589871 	0
1.09898562169 	0.0747681427624 	0
1.08551364005 	0.0390546116189 	0
1.06521200567 	0.0208979147958 	0
1.05231704827 	0.00986167908332 	0
1.04358520072 	0.00451765435282 	0
1.03759323412 	0.00140914212203 	0
1.03337985146 	1.75787363689e-05 	0
1.03058512336 	-0.000353935314652 	0
1.02506995856 	0.00219289400991 	0
1.02527531322 	0.00350571983294 	0
1.02500480173 	0.00530504064476 	0
1.02356610695 	0.00801791224508 	0
1.0197250213 	0.0126028199199 	0
1.01223005585 	0.0203545405326 	0
0.999092155795 	0.0345582719872 	0
0.979224942914 	0.0570724908422 	0
0.950626862947 	0.0923932515789 	0
0.905396694358 	0.142982325089 	0
0.862731303023 	0.207714840915 	0
0.832249369211 	0.273694134397 	0
0.812533841253 	0.299865046273 	0
0.827526507938 	0.279434753086 	0
0.899958097718 	0.217777248947 	0
1.03207944081 	0.127707224354 	0
1.13473043365 	0.0543279442614 	0
1.14096350545 	0.0195299730867 	0
1.10472794932 	0.0103509260095 	0
1.07620547944 	0.00520729832781 	0
1.05859863604 	0.00136657684471 	0
1.04688070636 	0.000116687504445 	0
1.03944981523 	-0.00084994330416 	0
1.03408712909 	-0.000936385906796 	0
1.03067412736 	-0.000770814957974 	0
1.02433454973 	0.000566213400063 	0
1.02445576304 	0.000730519002292 	0
1.02390899732 	0.000748464235876 	0
1.02184335735 	0.00043285413903 	0
1.01657169047 	-0.000127702051447 	0
1.00585485286 	-0.00112910057812 	0
0.986969560857 	-0.00089404831291 	0
0.958856783383 	0.00202645399355 	0
0.917515917032 	0.0141190912103 	0
0.859412744368 	0.0385753878177 	0
0.810863721068 	0.0688033853005 	0
0.794272518093 	0.101371028501 	0
0.815231232261 	0.116075918613 	0
0.880831148529 	0.094456987455 	0
0.989370358297 	0.0347356445724 	0
1.11018447016 	-0.0282833754348 	0
1.16674743723 	-0.0467392220719 	0
1.14256077315 	-0.0341078272748 	0
1.10111458724 	-0.0197458762055 	0
1.07484040998 	-0.0124634419134 	0
1.05770741246 	-0.0087217695078 	0
1.04597241859 	-0.0057638419156 	0
1.0387666189 	-0.00411548989506 	0
1.03344377628 	-0.0025893873995 	0
1.0301206181 	-0.00164658105155 	0
1.02465611041 	-0.000697133467951 	0
1.02526010825 	-0.00157608482939 	0
1.02553381198 	-0.00342418350861 	0
1.02490063465 	-0.00695278090389 	0
1.02178211855 	-0.0131915259585 	0
1.01375995227 	-0.0240945136575 	0
0.996263970156 	-0.0414474258743 	0
0.964685034621 	-0.0635484009899 	0
0.913338817985 	-0.0793035517223 	0
0.848443597359 	-0.0850646764803 	0
0.80144556104 	-0.0895599947479 	0
0.79099573861 	-0.099496768678 	0
0.828763310295 	-0.111292946297 	0
0.919703798714 	-0.12572194109 	0
1.030386195 	-0.142918222361 	0
1.11683107295 	-0.140824695715 	0
1.14072451595 	-0.10748685493 	0
1.11392340363 	-0.0674342478953 	0
1.08375338593 	-0.040985975308 	0
1.06523304551 	-0.0260234073278 	0
1.05175680773 	-0.0167965817958 	0
1.04204552682 	-0.0107829626233 	0
1.03603828432 	-0.00708121527474 	0
1.03149948801 	-0.00434611538197 	0
1.02873473247 	-0.00263891436431 	0
1.02568105259 	-0.00145076445511 	0
1.02727839818 	-0.00301606689057 	0
1.02929443011 	-0.00607384692639 	0
1.03171806498 	-0.0114984993297 	0
1.03382313977 	-0.0208495920247 	0
1.03437252443 	-0.0372559329891 	0
1.02640182484 	-0.0654780417743 	0
0.996840322816 	-0.106784904523 	0
0.938494906948 	-0.147078753572 	0
0.868164717475 	-0.177173128698 	0
0.82279618898 	-0.203918920424 	0
0.813130652095 	-0.230739461728 	0
0.841666388404 	-0.250673557699 	0
0.916778049286 	-0.253538762474 	0
1.00660407272 	-0.23278296391 	0
1.07199987199 	-0.189299273993 	0
1.08925560549 	-0.133641236871 	0
1.07407747573 	-0.0852189794644 	0
1.06021658164 	-0.0538120043479 	0
1.0509633378 	-0.0341625369579 	0
1.04271369406 	-0.0214614977571 	0
1.03638447412 	-0.0135218987345 	0
1.03226850159 	-0.00858617785149 	0
1.02895752874 	-0.00524225661108 	0
1.02690254537 	-0.00311664385516 	0
1.02702307653 	-0.00167942557615 	0
1.02979944144 	-0.00332308156039 	0
1.03383515951 	-0.0062852841127 	0
1.03961227475 	-0.0113804432709 	0
1.04766057213 	-0.0197635257551 	0
1.05865177936 	-0.0347224451172 	0
1.06625565814 	-0.0603977493696 	0
1.04597336774 	-0.106414446726 	0
0.98365784579 	-0.164096188241 	0
0.905064560787 	-0.212729664924 	0
0.85435071446 	-0.251426814652 	0
0.838546210301 	-0.280054456864 	0
0.850285745313 	-0.297251454283 	0
0.897351272238 	-0.29315271275 	0
0.958559260631 	-0.256022660404 	0
1.0103926492 	-0.197200877526 	0
1.03299881495 	-0.136613117415 	0
1.03236089988 	-0.0895563856792 	0
1.0327911221 	-0.0574308603175 	0
1.03308389323 	-0.0354198353402 	0
1.03137261363 	-0.0214959649372 	0
1.02951270338 	-0.0130860504838 	0
1.02794377421 	-0.0080235747126 	0
1.0262508949 	-0.0047848339518 	0
1.02503057202 	-0.00278263820779 	0
1.02828410244 	-0.001189083922 	0
1.03192582077 	-0.00223097145278 	0
1.03745414385 	-0.00392481175708 	0
1.04552212549 	-0.00690592652958 	0
1.05772014221 	-0.0113573515064 	0
1.07588852803 	-0.019654965979 	0
1.09819222002 	-0.032511742798 	0
1.09973288361 	-0.0621004192516 	0
1.04620075461 	-0.118450397308 	0
0.956219650114 	-0.183542781006 	0
0.888749974456 	-0.237770334402 	0
0.858268800002 	-0.269257860963 	0
0.85257212199 	-0.281395855706 	0
0.87201497622 	-0.267595680451 	0
0.904586417724 	-0.222034539498 	0
0.947016225949 	-0.16419152503 	0
0.980417765293 	-0.11010352471 	0
0.994270893725 	-0.0712425421268 	0
1.00559801062 	-0.044939980185 	0
1.01475061894 	-0.0262410371613 	0
1.02010280392 	-0.0152647185961 	0
1.02286685365 	-0.00893172048386 	0
1.0238989507 	-0.00531790758307 	0
1.02380385456 	-0.00305960781059 	0
1.02342406528 	-0.00174331504064 	0
1.0288826836 	-5.22405513151e-05 	0
1.03276021681 	-5.50186589351e-05 	0
1.03881411068 	2.80325615666e-05 	0
1.04751966977 	-0.00012402516275 	0
1.0609831684 	0.000183857203627 	0
1.08077313932 	6.34463545302e-05 	0
1.10882385672 	0.00166621554499 	0
1.13163836826 	8.03306182951e-05 	0
1.10538873762 	-0.0233519517734 	0
1.02501900693 	-0.0743486179067 	0
0.941465313532 	-0.133662170119 	0
0.882285036272 	-0.168560540979 	0
0.848263753306 	-0.174944129011 	0
0.840669691708 	-0.156811720468 	0
0.856205650279 	-0.121485905714 	0
0.896237272983 	-0.0837617517886 	0
0.939959963722 	-0.047980340163 	0
0.967425128513 	-0.0249155777122 	0
0.987313429673 	-0.0126663007284 	0
1.00316342145 	-0.00555385436255 	0
1.01371649069 	-0.00275760831067 	0
1.01933799616 	-0.00148423154691 	0
1.0218078615 	-0.000928213567774 	0
1.02253825571 	-0.000516446558287 	0
1.0225928919 	-0.000336298275576 	0
1.02840909155 	0.00126287278791 	0
1.03195391223 	0.0022908273027 	0
1.03759584117 	0.0040373167794 	0
1.04550157149 	0.00657025650159 	0
1.0577235199 	0.0110850985548 	0
1.07487602518 	0.0180190193962 	0
1.0987839904 	0.0303030216889 	0
1.12499130436 	0.0504999161654 	0
1.12158749171 	0.06741815779 	0
1.07006576169 	0.0603912520336 	0
0.988697384517 	0.0320435598893 	0
0.905575646634 	0.0133384204036 	0
0.846397374717 	0.0104882711147 	0
0.823863096716 	0.0136932458334 	0
0.83426071897 	0.018423104848 	0
0.872617306637 	0.02506935404 	0
0.921359631441 	0.0348936496202 	0