1.01404242954 	-0.00822989821282 	-1.99392682548e-21
1.01508752396 	-0.0128205883253 	-1.51396315382e-21
1.01628201255 	-0.0179034772804 	5.53750213353e-22
1.01757846032 	-0.0238626863686 	-1.54519521261e-24
1.01861911547 	-0.0307411629532 	-6.1223536376e-22
1.01889554218 	-0.0388785354466 	-3.00976819387e-22
1.01736021865 	-0.0479524754328 	-3.40914373692e-22
1.01214032969 	-0.0566168933445 	-1.66679132654e-21
1.00174861473 	-0.0666716286142 	2.33905428665e-20
0.982073163414 	-0.0705945889316 	1.70691770689e-21
0.954656935422 	-0.0629526083407 	4.29898657699e-23
0.927232530297 	-0.0358579199077 	2.05781154676e-21
0.916416358294 	0.00871411493051 	-3.86954923261e-24
0.932746511775 	0.0516487051974 	2.39058951951e-22
0.963650327931 	0.0747238861593 	-1.4779204218e-21
0.991966738284 	0.0779822826264 	1.70654166026e-21
1.01072323027 	0.0703555464715 	1.63995167667e-20
1.01944840607 	0.057717948862 	-1.26090721076e-21
1.02280030848 	0.0476185002266 	-1.21132883457e-21
1.0227284915 	0.0378065161662 	2.51388369798e-22
1.02117093856 	0.0294719754643 	5.29433738348e-22
1.01912553737 	0.0225997745339 	3.90342348001e-24
1.01708778254 	0.0168453091474 	-2.86240578433e-22
1.01540807337 	0.011975796404 	6.22640563018e-22
1.01404675951 	0.00761899135013 	6.26548878157e-22
1.01864193173 	-0.00888063384688 	7.0449187112e-22
1.02020415418 	-0.0138438921438 	1.40287997803e-21
1.02221089061 	-0.0196652508253 	9.0401828335e-22
1.02452840341 	-0.0265177801809 	-1.82063999092e-22
1.02689338176 	-0.034764389323 	9.04885975417e-22
1.02862123363 	-0.0449372397693 	-3.9520969618e-22
1.02864172754 	-0.0573173111804 	7.05155251265e-22
1.02506771244 	-0.0726058670598 	2.25178048425e-22
1.0135150362 	-0.090344448532 	-7.02965024206e-22
0.988380031062 	-0.106654623132 	-2.97817629933e-21
0.941277384162 	-0.111619500726 	-4.1025225212e-21
0.877004889298 	-0.0774435392155 	1.037423717e-20
0.844862557864 	0.0116157239305 	1.68130639744e-22
0.887415806777 	0.0966785497131 	9.47060214324e-21
0.95633381577 	0.122937118729 	-7.7727792973e-21
1.0033220797 	0.110992646179 	-1.82549769088e-21
1.02605418837 	0.0901050452669 	-3.969373077e-22
1.03406714054 	0.069780655585 	-2.31836571956e-22
1.03491933612 	0.0536713377436 	-4.18796003824e-22
1.03264225743 	0.0413017101175 	2.22001097802e-22
1.02920665787 	0.0315798081763 	-5.47158780427e-22
1.0256923701 	0.0239438973062 	9.17221940143e-23
1.0226167692 	0.0177388061424 	-2.75216475951e-22
1.02012912611 	0.0124822616675 	-5.12914769307e-22
1.01828759918 	0.00797559567146 	-1.00735226334e-22
1.02345845025 	-0.00912165661836 	1.42439838476e-23
1.02573559363 	-0.0141628408796 	6.58918217312e-22
1.02873675236 	-0.0203987404706 	-6.17026987055e-22
1.03241150627 	-0.027804150474 	-3.40778367374e-24
1.03668927738 	-0.0370062162131 	2.7556439857e-22
1.04101413256 	-0.0488570592269 	2.64742688026e-22
1.0444024081 	-0.0642893549115 	-5.62646542729e-22
1.04492035174 	-0.0849267370617 	-1.41304403559e-21
1.03869112635 	-0.112848152367 	-1.36916168605e-22
1.01639309544 	-0.151476928456 	1.13103461094e-21
0.95231624502 	-0.195944786904 	1.60581778828e-20
0.798944383703 	-0.19417696433 	-2.08881427898e-21
0.667648422874 	0.0196106147283 	-2.6620284262e-21
0.821691780795 	0.220639476391 	-3.61984024703e-21
0.978068944499 	0.205206178678 	9.81773870125e-21
1.03776763516 	0.149917276701 	-4.76118338624e-22
1.05436069461 	0.106135369192 	3.46695748927e-24
1.05519073958 	0.0765411204188 	1.91333618848e-22
1.05043324034 	0.0562111948756 	-2.02980097507e-23
1.04416472496 	0.0420852436061 	2.91071033336e-23
1.03799128228 	0.0317468940865 	-7.65520949333e-23
1.03264452657 	0.0239124713341 	-6.21403092272e-25
1.02834515431 	0.0176448496394 	9.75957380583e-23
1.02499351879 	0.0123425928657 	-1.53215083721e-22
1.02257126859 	0.0079668712616 	-1.85326942314e-22
1.02834631961 	-0.00879675018746 	6.14616132359e-23
1.03136583369 	-0.0137579873214 	-2.22800191786e-23
1.03546496251 	-0.0198448418585 	1.05861454178e-22
1.04080302875 	-0.0272773558821 	-8.76882171884e-23
1.04736879112 	-0.0366599791682 	-1.22267014537e-22
1.05502737178 	-0.049223430702 	-9.1722155929e-23
1.06333024467 	-0.0662313947364 	8.94619010582e-23
1.07143423923 	-0.0900228918449 	-2.50451799698e-22
1.07768120445 	-0.125112638488 	6.54650416565e-23
1.07755606252 	-0.182705115484 	-4.80380132436e-22
1.05374560429 	-0.296259406519 	1.44211171965e-22
0.838571204634 	-0.568497512829 	-2.31768845103e-21
0.896996662476 	0.598226634385 	3.3719923634e-22
1.09629813947 	0.296199209411 	-1.75253980559e-21
1.10703838791 	0.170418538509 	-1.91543234709e-21
1.09567982571 	0.108595731574 	-5.87024090456e-22
1.0810259111 	0.074261503546 	8.51967337385e-22
1.06743393996 	0.0531537329575 	4.13233277249e-22
1.05597009227 	0.0393348845047 	-6.16936267713e-23
1.04670724728 	0.0295705975382 	-1.08704427456e-22
1.03944269486 	0.0223551828449 	-7.70473061793e-23
1.03387020283 	0.0165477408365 	-2.33927272037e-23
1.02972012585 	0.0116522970761 	-2.92498597829e-23
1.02676009523 	0.00753380720739 	3.24966788636e-24
1.03298588819 	-0.00778948227314 	-3.57525619572e-23
1.03670162556 	-0.0124726531661 	3.69773034004e-23
1.04189356805 	-0.0178775333703 	2.85110930562e-23
1.04894923319 	-0.0246747254956 	-1.73915167251e-26
1.05793566067 	-0.0333888302399 	-1.93741733693e-23
1.0692687094 	-0.0451921694723 	-2.10886637749e-24
1.08310421389 	-0.0614354031684 	-4.1594184834e-24
1.09977300943 	-0.084256008017 	2.08124700801e-23
1.12087600184 	-0.117440729406 	-3.89166571673e-22
1.15271805269 	-0.168553158994 	-1.9188274548e-22
1.22584073966 	-0.257175642067 	1.94989744524e-22
0.0427613986212 	0.00151854827955 	-2.04841353846e-21
1.2851630123 	0.237354135107 	-2.5992701054e-22
1.18864418688 	0.138397984107 	3.6905639556e-22
1.1379948514 	0.0873762203372 	1.05905197444e-21
1.10530824988 	0.0598416127743 	-3.21239139281e-22
1.08265065764 	0.0435280838659 	-3.86748613422e-24
1.06633783568 	0.0329200786768 	8.17393883426e-24
1.05431200035 	0.0252954180791 	9.80321679027e-23
1.04545063069 	0.019422987929 	-3.05828406004e-25
1.03880677673 	0.0145849510296 	5.89366388573e-23
1.03402984541 	0.0104621443039 	5.54613186435e-23
1.0306603254 	0.00664403964242 	-2.07915635952e-23
1.0368261378 	-0.00656497845123 	1.04864016333e-24
1.04120074362 	-0.0101135367239 	-2.51308248803e-23
1.04744300267 	-0.0145609231466 	-2.96115929842e-23
1.05598420447 	-0.0199852835005 	7.76600211283e-24
1.06715552916 	-0.0270058772043 	7.99921702861e-23
1.08187378917 	-0.036609127163 	1.62461005708e-22
1.10055561099 	-0.0498625972387 	-9.49337876912e-22
1.12432628683 	-0.0682546181195 	3.86762137064e-22
1.15487090721 	-0.0928257236711 	1.34692740953e-21
1.19792432515 	-0.121171043319 	-8.42498843704e-21
1.25619440569 	-0.131548445496 	2.41792242963e-20
0.104224446499 	0.00571532535611 	1.46328894575e-21
-0.000541787844867 	0.0171469714866 	-4.47166593933e-22
0.159791906404 	0.0462273197074 	1.47665128428e-23
1.34448620602 	0.0870921391074 	-3.68886239977e-20
1.23489364017 	0.0622560850718 	1.17450698517e-20
1.16324024118 	0.045208501923 	1.11122716733e-21
1.12004547677 	0.0354466583632 	3.56492954242e-22
1.0921010076 	0.0289233548805 	1.58455910423e-21
1.073251773 	0.023869342761 	-2.68741575803e-22
1.05974657456 	0.0195181972679 	-2.3430218572e-22
1.05006031604 	0.0155724265246 	-1.05790459989e-23
1.04281631045 	0.0120558167527 	-3.94133489358e-23
1.037564224 	0.00874206345943 	-8.03932990604e-23
1.03390857652 	0.00580229338518 	-1.56183586048e-22
1.03989234194 	-0.00471503531953 	-1.21587632856e-23
1.04458612169 	-0.00705843674997 	-1.53689652101e-22
1.0515779085 	-0.0101581372575 	2.17379149743e-22
1.06117569617 	-0.0136420011336 	-1.98214741574e-24
1.07402068356 	-0.0181908218875 	-2.86355203833e-22
1.09116051798 	-0.0243365373747 	-3.01130035993e-22
1.1135982938 	-0.0329475529271 	8.98727755164e-22
1.14213602954 	-0.0452483829604 	3.23714177447e-21
1.17700839803 	-0.0618664187734 	7.63954415264e-22
1.21548880638 	-0.0805141174116 	2.78912845079e-21
1.18448403024 	-0.0616669587323 	2.18431280947e-21
0.0850380463609 	0.0672789997527 	-3.35533336399e-21
-0.159724267072 	0.153704269534 	-3.56456363998e-21
0.483678662589 	0.0473341937324 	-8.46549836468e-21
1.33141243486 	-0.0599041916875 	-3.10271813211e-21
1.23391635511 	-0.0248135951355 	-3.83702831919e-21
1.1614700642 	-0.00320111247267 	-1.34727969469e-22
1.12012351005 	0.00849346173469 	-4.75814607707e-21
1.09364237926 	0.0135165490506 	-1.4154427344e-21
1.07567553553 	0.014474860885 	3.63327043137e-22
1.06270039411 	0.0134718553429 	4.32316420731e-22
1.05307675345 	0.0115334340897 	5.00380740626e-24
1.04574592028 	0.00933663407543 	-5.59881243908e-22
1.0403096787 	0.00690367189755 	4.87644726337e-22
1.03663345351 	0.00467281482568 	4.2625853356e-22
1.04189998802 	-0.00268456477401 	-1.48474613128e-22
1.04669315779 	-0.00372674894015 	-4.70227090224e-22
1.05389372619 	-0.00511670054962 	-3.06856628996e-22
1.06391308226 	-0.00631563508891 	6.63664778824e-23
1.07744923252 	-0.00774162712163 	-6.63329279261e-22
1.09616665976 	-0.00940963669077 	4.59793772871e-22
1.12058400967 	-0.0121841378675 	-1.14076806783e-21
1.1522478245 	-0.0167061633234 	-8.74470439734e-23
1.19419810061 	-0.0273219291153 	-2.34746209563e-21
1.23874928465 	-0.0478291697117 	-2.69020732777e-21
1.11745429179 	-0.0569928827977 	3.64222677772e-21
0.107992142747 	-0.120107859445 	5.93672016509e-21
-0.149052413512 	-0.222987013573 	5.80475200825e-22
0.677381688165 	-0.286812298015 	1.47162866366e-20
1.23846791149 	-0.213328575826 	-2.53951815119e-21
1.17300015046 	-0.098920394761 	-2.61998813018e-21
1.13577852881 	-0.0421050067891 	-1.96901024872e-21
1.10622802883 	-0.0114343838003 	2.98301800842e-22
1.08812812907 	0.00189352126939 	1.80801328463e-21
1.07443783874 	0.00713129687858 	-6.47902541375e-22
1.06329599022 	0.0084314550323 	9.27765553504e-22
1.05465605236 	0.00794263014271 	-1.04782673475e-22
1.04765923557 	0.00675340227198 	6.70969389705e-22
1.04238724315 	0.00511081541169 	8.25617649785e-22
1.03876819793 	0.003460319926 	-2.51043272905e-23
1.04261004013 	-0.0006764787938 	4.75869787794e-22
1.04736033424 	-0.000513855287674 	4.68704362467e-22
1.0541826351 	-2.10153355417e-05 	-2.51419614904e-22
1.06389335585 	0.00117804592574 	-8.59193819448e-23
1.07707498858 	0.00315342708248 	3.15770911497e-22
1.09524414426 	0.00626817457526 	1.70521405417e-22
1.12086572317 	0.0118900436498 	-2.32127936214e-22
1.15337979605 	0.0143294811446 	7.247257431e-22
1.20077644621 	0.0180524389557 	2.68415725824e-20
1.27159222059 	0.00577907108517 	2.05319417049e-21
1.15775455368 	-0.0284937697842 	7.00494048531e-22
0.337702033159 	-0.283824418805 	3.32736259411e-21
-0.0363134278459 	-0.513469570718 	-2.68922263411e-22
0.60541135027 	-0.43401868766 	1.63958785498e-21
1.06007024711 	-0.259257207433 	-1.37190185957e-21
1.07929211684 	-0.114543448195 	2.07962945818e-21
1.08824541357 	-0.0472515099834 	2.08092069784e-20
1.08398878562 	-0.0161096420332 	4.72236594923e-22
1.07940719775 	-0.00259805552334 	2.46393611816e-21
1.07121360584 	0.0031279361532 	-2.70646142476e-22
1.06270371603 	0.00502470620869 	-7.54088037246e-22
1.05531835386 	0.00510880030736 	1.58327745917e-22
1.04878541854 	0.004479877891 	3.24347081767e-22
1.04385208272 	0.0034120633782 	-7.22441821223e-22
1.04021887491 	0.00230151722131 	-6.16807246289e-22
1.04229316476 	0.00114472130085 	-7.10845949546e-22
1.04655163325 	0.00236290250158 	-2.81518409423e-22
1.05250068369 	0.00443009060429 	-7.05644640671e-23
1.06116760412 	0.00778468321378 	-2.62962557916e-22
1.07323259714 	0.0131705432572 	2.2477027951e-22
1.08856981544 	0.0221185402358 	-8.80146803944e-22
1.10956931556 	0.0315749575482 	-9.02523347183e-22
1.14271435456 	0.0499241365425 	-1.29532300677e-21
1.18678756095 	0.0748649765979 	4.11196003778e-21
1.28034103677 	0.104042394339 	7.16273951111e-22
1.23419606184 	0.120090843135 	-7.7429934123e-21
0.687581944408 	-0.0601337013144 	-6.09454783833e-21
0.124389130879 	-0.368892758437 	-1.00925722621e-21
0.364523716004 	-0.37847021847 	2.75607437616e-22
0.886844448471 	-0.157691003056 	-4.88525085932e-22
1.00066064229 	-0.0564824201761 	2.83598384824e-22
1.05034318106 	-0.0219032340969 	1.42272173445e-21
1.06903091966 	-0.00578000931773 	-5.43621017577e-22
1.07163670675 	0.000748223916438 	8.7709634803e-22
1.06916264739 	0.0019450900461 	9.59607135329e-22
1.06243829944 	0.00313963665958 	-1.37362402821e-21
1.05566979506 	0.00292627996922 	2.95622017061e-22
1.04944863559 	0.00244671699423 	7.90142946862e-23
1.04476585422 	0.0017593086088 	7.73863511016e-22
1.04117674326 	0.00117654540361 	3.46656318363e-22
1.04101310843 	0.00242246143423 	8.66358012981e-22
1.04453654224 	0.00456282296097 	-1.8943803742e-21
1.0493203182 	0.00747438571848 	1.16954359287e-21
1.05601816997 	0.0126820433663 	6.0054603327e-24
1.06476523826 	0.0196695823755 	2.07774721336e-21
1.07588628123 	0.0301431388086 	-5.08403149664e-22
1.09140833549 	0.048439342362 	-2.04016023565e-21
1.1147210883 	0.0770373035847 	1.13279333102e-22
1.14275979084 	0.120148606492 	1.53991040975e-21
1.20781125514 	0.195331128168 	1.52362177238e-21
1.21028380387 	0.295864320144 	-1.03488497958e-20
0.900809856488 	0.307465937902 	1.55558296517e-22
0.389229506673 	0.0984477844684 	-4.67831992979e-22
0.293250613762 	-0.0945545726338 	5.80015968053e-23
0.751156526278 	-0.0177237069271 	3.43839583694e-21
0.979762485339 	0.0413572268505 	-3.16316290214e-22
1.04502526827 	0.0230109625244 	4.61625036539e-23
1.06931474501 	0.0133840785792 	6.55241756778e-23
1.07329981041 	0.00641132876049 	-1.15707474243e-21
1.069121866 	0.0037373372722 	-5.50488816705e-22
1.06260601078 	0.00182504963912 	1.44329612167e-21
1.055901626 	0.000191893611217 	-1.44535399732e-24
1.04985928263 	0.000426036910569 	-1.65955058513e-21
1.0451978473 	3.49875659892e-05 	2.81575252467e-21
1.04146206734 	0.000116531858423 	-8.76399286814e-23
1.03916467283 	0.00316004977669 	-6.8084312542e-22
1.04187579022 	0.00597080628038 	2.1914003667e-23
1.04512125815 	0.00891305870097 	2.31390115274e-21
1.04930359795 	0.0137640600275 	-1.24760092443e-21
1.05437174763 	0.021770181468 	1.98071437869e-21
1.06094735854 	0.0344855158457 	-2.27427722622e-21
1.06710805025 	0.054920669919 	2.59790991531e-22
1.07500389103 	0.0870392457283 	-1.59929739485e-23
1.07985014028 	0.138893492612 	2.25945977584e-21
1.09499410649 	0.223780427473 	-2.83336970003e-21
1.08760036588 	0.356447500468 	3.50187847366e-21
0.906901223321 	0.451176861002 	2.96547583746e-21
0.566076783425 	0.409858637285 	-2.87135639063e-22
0.431489232475 	0.287670521685 	7.52370075472e-23
0.676326037051 	0.184206198208 	-6.82993061504e-22
1.00978446461 	0.1335539836 	1.15298718042e-21
1.08625973298 	0.0655200619652 	-8.2308221145e-22
1.08806120398 	0.0258614807166 	-7.36602803794e-26
1.08261597892 	0.0107518812602 	2.32170058316e-22
1.07350496063 	0.00234652425102 	-1.7843880964e-21
1.06426913088 	-0.000223025902344 	1.64124059221e-21
1.05601423496 	-0.00148907515881 	-2.49268087564e-22
1.04931992567 	-0.00272325443473 	-3.06723586311e-21
1.04518502934 	-0.00193699742125 	-4.85222014952e-23
1.0412699882 	-0.00108941362398 	6.34198530444e-22
1.03721978937 	0.00317924439788 	5.21956276291e-22
1.03920060169 	0.00566888878881 	-3.21745860908e-22
1.04085820152 	0.00825828814725 	-2.51977361614e-22
1.043089453 	0.012689080976 	1.43496200072e-22
1.04547568535 	0.0199275587016 	1.1441751889e-22
1.04580943942 	0.0311597791493 	6.97586733289e-22
1.04249454793 	0.0480782172812 	1.24584028921e-22
1.03658693482 	0.0776447073633 	1.11790601449e-23
1.01626294699 	0.123115352945 	-1.11254479402e-22
0.99062273025 	0.193263936248 	1.05721427722e-23
0.947167826108 	0.324655220288 	-7.62308201076e-22
0.838210656031 	0.44094245371 	-7.17855640789e-22
0.598615397648 	0.502652586591 	-3.96752406607e-22
0.534902765951 	0.473460220699 	4.83510455949e-22
0.789270405013 	0.304807053525 	5.89662579426e-22
1.11565222334 	0.125322207216 	1.05988599997e-22
1.1554472372 	0.0615087080878 	6.21486453894e-23
1.11952345977 	0.0160554650449 	-1.74453789694e-23
1.09475536893 	0.00353286242515 	9.00183495798e-23
1.07935495496 	-0.00479106448922 	5.17360125392e-22
1.06534942066 	-0.00507043597923 	3.29900537722e-22
1.05624660576 	-0.00539308708563 	2.4911937288e-22
1.04869166224 	-0.00394995564123 	-3.18447015546e-22
1.04435737189 	-0.00337435639469 	-9.73860740674e-22
1.04014316232 	-0.0025032415932 	-6.66323931067e-22
1.03519224407 	0.00320846953345 	-1.2811584566e-21
1.036485357 	0.00449284713908 	4.22853435473e-22
1.03815203032 	0.0066729380383 	2.3526237342e-23
1.03916908035 	0.0096957081792 	3.78602574182e-23
1.03892649527 	0.0141684771072 	-1.56062273499e-22
1.03446344266 	0.0201842763353 	1.01919568663e-23
1.02545972699 	0.0293394265034 	1.84570806587e-22
1.00567841556 	0.0467954889174 	1.39587180933e-23
0.957304658733 	0.0725044766377 	2.83353358484e-25
0.898916053251 	0.126702880678 	-1.19299023411e-23
0.828575961693 	0.21457881472 	2.17578492622e-22
0.695315833108 	0.357741911048 	2.44393858641e-24
0.586985079033 	0.414811442143 	-2.91157122209e-22
0.685832962088 	0.331665166618 	1.53174569102e-21
1.00690725829 	0.119989269488 	3.52745843383e-22
1.21493229225 	0.0194567940452 	2.81269786553e-23
1.2196248521 	-0.00572621475742 	6.61100283108e-24
1.13728822064 	-0.0236802580969 	4.11668997175e-23
1.10041859656 	-0.0145121405286 	7.70792954359e-22
1.08070267178 	-0.0162261229007 	-1.79727929162e-22
1.06438308907 	-0.0124607082135 	-3.41265419969e-22
1.05476122409 	-0.00922686031994 	4.81586216206e-23
1.04713539601 	-0.00722536345504 	-3.02124176262e-24
1.04181603662 	-0.00503105718468 	8.03653896284e-22
1.03866515348 	-0.00362335256329 	1.77983962647e-22
1.03401696007 	0.00187696519139 	-2.24085249531e-22
1.03526453993 	0.00294793941215 	-2.33675449185e-22
1.03641898767 	0.00384373552467 	9.0612740955e-23
1.03653187412 	0.00472711703978 	4.47473739739e-23
1.03465870381 	0.00554697811927 	5.22663152421e-23
1.02917400196 	0.00559775235654 	-1.15238749471e-22
1.01633274431 	0.00589707290656 	-2.12567668647e-23
0.987612080707 	0.00885090019813 	3.87713204739e-22
0.934065503213 	0.0109400898497 	-2.7984406866e-22
0.84019338814 	0.0280058416834 	-2.77231278642e-22
0.722743097968 	0.0871038624756 	3.27086928143e-22
0.641337385229 	0.121235568841 	0
0.676597353061 	0.0693895220656 	-2.53379134465e-35
0.870062057812 	-0.0479422798487 	-4.01690208507e-24
1.09959192902 	-0.137517544336 	-1.01182299564e-21
1.2110704407 	-0.133523286624 	5.53114684417e-22
1.19173786813 	-0.0878894656304 	8.89973327077e-22
1.12920669541 	-0.0557281590101 	-6.84787972516e-22
1.09182017777 	-0.0379920744285 	3.35983826879e-23
1.07370439743 	-0.0263532275154 	3.88733724735e-22
1.05962803153 	-0.0196226152592 	1.41189555439e-22
1.05034053818 	-0.0134099922474 	-1.11743954355e-23
1.04445919023 	-0.00959843904064 	1.38662908016e-22
1.03957695927 	-0.00637663857234 	-4.89457119273e-22
1.03653127722 	-0.00364928706892 	-4.54258141449e-22
1.03351875356 	0.00138014638565 	0
1.03517574767 	0.00187842607494 	0
1.03689758161 	0.00169507290365 	0
1.03797176721 	0.000514939088737 	0
1.03764639462 	-0.00266085063449 	0
1.03470600627 	-0.00926293567528 	0
1.02438618712 	-0.0205899356233 	0
0.99946192186 	-0.043194564636 	0
0.942981256532 	-0.0780716927234 	0
0.828729363966 	-0.108117748537 	0
0.717426526042 	-0.118115077874 	0
0.681114803975 	-0.148170917462 	0
0.754647573622 	-0.206844302911 	0
0.927972634253 	-0.258657479118 	0
1.08802568004 	-0.262932285344 	0
1.15194917596 	-0.201991763751 	0
1.13373896548 	-0.126490526956 	0
1.09514361281 	-0.0779644356373 	0
1.07327798075 	-0.0519594326369 	0
1.06159659369 	-0.0348108246356 	0
1.05178449631 	-0.0238519581802 	0
1.04496385175 	-0.0163999918977 	0
1.04050142046 	-0.0112443333958 	0
1.03674109139 	-0.00741642703197 	0
1.0343095109 	-0.00449411852285 	0
1.03303238883 	0.00108378672932 	0
1.03524460165 	0.00121361592215 	0
1.03802145486 	0.000421391962676 	0
1.04138272217 	-0.00198826499352 	0
1.044810911 	-0.007455958988 	0
1.04866501804 	-0.0190107614436 	0
1.05216396802 	-0.0385476187007 	0
1.04616912155 	-0.0804238579711 	0
1.00016675062 	-0.14614465329 	0
0.878992984199 	-0.2183263168 	0
0.762001261324 	-0.274401541235 	0
0.72697840381 	-0.317863320708 	0
0.783014405387 	-0.351316656343 	0
0.918664365223 	-0.351502232955 	0
1.02958329601 	-0.29992427542 	0
1.06593103482 	-0.213117125785 	0
1.06576329702 	-0.134397666563 	0
1.05742389311 	-0.084646898938 	0
1.05136699919 	-0.0567076559176 	0
1.04655143405 	-0.0374546393579 	0
1.0421389689 	-0.0248712926825 	0
1.03854270301 	-0.0170131290733 	0
1.03576347473 	-0.011376106544 	0
1.03338597327 	-0.00744912764121 	0
1.03178572425 	-0.004598168536 	0
1.03275406265 	0.00112148286134 	0
1.03553809626 	0.00120464540028 	0
1.03960143484 	0.000558568305144 	0
1.04534182056 	-0.00164888338963 	0
1.05344222111 	-0.00582960170879 	0
1.06512176466 	-0.0159854970744 	0
1.08519659878 	-0.0324109039541 	0
1.10697070904 	-0.0660596389189 	0
1.0833251551 	-0.132392258585 	0
0.956752049108 	-0.227066755958 	0
0.814699608141 	-0.311652014122 	0
0.759240254951 	-0.36200834815 	0
0.784916319086 	-0.384687134993 	0
0.871416902313 	-0.364168580804 	0
0.944041621405 	-0.287078333899 	0
0.978445577297 	-0.195635495185 	0
1.00324849024 	-0.127065144513 	0
1.01910926544 	-0.080577217327 	0
1.0278058233 	-0.0520933630929 	0
1.0310245323 	-0.0335117423059 	0
1.03227944756 	-0.0218996118099 	0
1.03217849893 	-0.0146835048508 	0
1.0312658311 	-0.00977757439033 	0
1.03022193667 	-0.00647579417883 	0
1.02933841757 	-0.0040353361709 	0
1.03251817916 	0.00154923608298 	0
1.03573729594 	0.0020176366165 	0
1.0408003903 	0.00242763537218 	0
1.04781329989 	0.00192896265683 	0
1.05909935354 	0.00154997517074 	0
1.07555047906 	-0.00178665521759 	0
1.10334678598 	-0.00620982858061 	0
1.14604963987 	-0.0134191272166 	0
1.16031250492 	-0.0411346789129 	0
1.06072317201 	-0.113750022782 	0
0.897676576772 	-0.217283474851 	0
0.798140380204 	-0.294428507359 	0
0.780313759882 	-0.322012596873 	0
0.812240352608 	-0.291916572222 	0
0.854627316466 	-0.216513049462 	0
0.901580431175 	-0.143562098452 	0
0.94928309167 	-0.0923215787486 	0
0.982115550939 	-0.0572613038939 	0
1.00367256003 	-0.0348961518677 	0
1.01619265902 	-0.0216013434078 	0
1.02314368607 	-0.0141268982432 	0
1.02649840137 	-0.00945539692604 	0
1.02751928561 	-0.00651852847099 	0
1.0275914734 	-0.00448155885375 	0
1.02723294416 	-0.00285175800122 	0
1.0317149484 	0.0023715907246 	0
1.03494978167 	0.0036319662986 	0
1.04015523672 	0.00554510280389 	0
1.04694483429 	0.00747780904369 	0
1.05837832289 	0.0110420996248 	0
1.07463775305 	0.015219133905 	0
1.09951996067 	0.0229730862173 	0
1.14345059327 	0.0385334560867 	0
1.18408380903 	0.0582562813316 	0
1.13919132037 	0.0519720092227 	0
1.0026102066 	-0.0106890783454 	0
0.868255368765 	-0.0861297656016 	0
0.789411036293 	-0.120217802824 	0
0.771555715037 	-0.109295881864 	0
0.796060756187 	-0.0729937796956 	0
0.851959115922 	-0.0383294530025 	0
0.916002983126 	-0.0156636210119 	0
0.960821612548 	-0.00522800015171 	0
0.990403827149 	-0.002169114262 	0
1.00887135091 	-0.00162801620294 	0
1.01890765388 	-0.00210203441959 	0
1.0238419823 	-0.00217658043798 	0
1.02571675147 	-0.00210215210169 	0
1.02619729838 	-0.0017793289684 	0
1.02601914346 	-0.00126226146908 	0
1.03001508305 	0.00323567947666 	0
1.03269654285 	0.00526038370839 	0
1.03708068774 	0.00833137780898 	0
1.04258904584 	0.0122531389042 	0
1.05180327875 	0.0185318124213 	0
1.06438667606 	0.0279395671412 	0
1.08152732773 	0.0429655125171 	0
1.11207467268 	0.0690698876959 	0
1.14778654598 	0.112610001009 	0
1.13293394686 	0.158377284206 	0
1.04473052711 	0.169778106711 	0
0.919929240904 	0.147149468971 	0
0.813330979354 	0.124098903246 	0
0.771507863563 	0.106309152417 	0
0.785655561166 	0.0954656277472 	0
0.841465193382 	0.0911275931868 	0
0.914976423895 	0.080705574609 	0
0.968768545715 	0.0599226586028 	0
0.999823530082 	0.0363848002878 	0
1.01605225432 	0.0202131508653 	0
1.02333609934 	0.010415442399 	0
1.02624748212 	0.00497985952899 	0
1.02682145925 	0.00207138039956 	0
1.02653616475 	0.000663639323428 	0
1.02593688638 	0.00012874905388 	0
1.02778293579 	0.00359719958737 	0
1.02966011844 	0.00592020008924 	0
1.03270279689 	0.00943802008296 	0
1.03634841978 	0.014430247822 	0
1.04213246598 	0.0222725908307 	0
1.04961395013 	0.0347909708758 	0
1.05812558773 	0.0540596317967 	0
1.07186776945 	0.0843788164801 	0
1.08914903702 	0.134313510078 	0
1.07582191978 	0.198165072893 	0
1.01491648212 	0.252353956162 	0
0.919038886386 	0.2761317692 	0
0.831191443187 	0.270746109024 	0
0.797162169011 	0.247056576495 	0
0.809225223067 	0.217438927173 	0
0.865454060441 	0.187908187137 	0
0.946495166878 	0.150834802112 	0
1.00597180703 	0.1031348185 	0
1.03124352366 	0.0599769263695 	0
1.03606479801 	0.033273877405 	0
1.03487786698 	0.0178848586078 	0
1.03270771521 	0.00934790103196 	0
1.0302701576 	0.00454639616087 	0
1.02824906332 	0.00201410573529 	0
1.02667163782 	0.000876727632601 	0
1.02565150184 	0.00312510975609 	0
1.02675481101 	0.00522754444002 	0
1.0282991427 	0.0084973781671 	0
1.02966308289 	0.0134944469209 	0
1.03121491468 	0.0216497273141 	0
1.03245238352 	0.035144513311 	0
1.03166682325 	0.0566215353731 	0
1.0303726584 	0.088239375817 	0
1.02916068908 	0.136868977938 	0
1.00598090668 	0.201293031729 	0
0.958949767976 	0.269055829907 	0
0.896381302859 	0.313672251757 	0
0.8412055574 	0.318295676785 	0
0.82527049997 	0.298708509044 	0
0.843904305749 	0.266129841408 	0
0.908090848295 	0.221933461612 	0
0.999786862317 	0.163492318763 	0
1.05998470369 	0.0998269433807 	0
1.07083962136 	0.0552823043659 	0
1.05901158693 	0.0312591887508 	0
1.04779269026 	0.0171054152038 	0
1.03993037831 	0.00938746927471 	0
1.03432724883 	0.00476203805211 	0
1.03037797456 	0.00221610237346 	0
1.02767797099 	0.000996758238329 	0
1.02405419165 	0.00197768562502 	0
1.0244653039 	0.00336721918788 	0
1.0245790333 	0.00562717486237 	0
1.02357285452 	0.00915315804238 	0
1.02073022442 	0.015246523165 	0
1.01507025744 	0.0257162949145 	0
1.00504820003 	0.0438623093953 	0
0.991796614394 	0.0700389965974 	0
0.97463775685 	0.109975583851 	0
0.938163150384 	0.165467390807 	0
0.896973767214 	0.227966440788 	0
0.865151387783 	0.281358950261 	0
0.843239805287 	0.298177487972 	0
0.847632445575 	0.283561307753 	0
0.88441846784 	0.244942496727 	0
0.969498276908 	0.180168757452 	0
1.06941886795 	0.107390928867 	0
1.11292037125 	0.0527526785057 	0
1.09989440022 	0.0279365947635 	0
1.07463059032 	0.0166142875226 	0
1.05676490963 	0.00913413009074 	0
1.0449850271 	0.00529311554404 	0
1.03730483695 	0.00273400547626 	0
1.03198017502 	0.00136764981737 	0
1.02849514851 	0.000613140288651 	0
1.0232336752 	0.000555564838364 	0
1.02323893251 	0.000822779205633 	0
1.02254315792 	0.00127148681865 	0
1.02014772273 	0.00178931854633 	0
1.01456274704 	0.00291297492069 	0
1.00385198899 	0.00522945710119 	0
0.986994875492 	0.0114872453077 	0
0.964785717168 	0.0226064714147 	0
0.933666263964 	0.0448974133399 	0
0.885967755305 	0.0805105926215 	0
0.844149556282 	0.118721187861 	0
0.829314329453 	0.157523204708 	0
0.839730548713 	0.177497027392 	0
0.878719721834 	0.167028356353 	0
0.948997851022 	0.122680258602 	0
1.04660981952 	0.0562714392368 	0
1.12688222464 	0.00774673470937 	0
1.13881374982 	-0.00806013167185 	0
1.10730273377 	-0.00515188990478 	0
1.07857266953 	-0.00251184368216 	0
1.05942788252 	-0.00190972945873 	0
1.04650625208 	-0.00109333894044 	0
1.03826023096 	-0.000867076471692 	0
1.03245372158 	-0.000481608454603 	0
1.0287754969 	-0.000291725653289 	0
1.02339333968 	-0.00085944352833 	0
1.02363641058 	-0.00181823980163 	0
1.02336374332 	-0.00349659218641 	0
1.0217061849 	-0.0065323776161 	0
1.01696917851 	-0.0116025025166 	0
1.00625413241 	-0.0198873723543 	0
0.986993845886 	-0.031075894486 	0
0.958283967697 	-0.0411776389384 	0
0.916314612613 	-0.0420111310479 	0
0.863102227645 	-0.0338543399488 	0
0.822525364824 	-0.0283215577967 	0
0.812782809528 	-0.0251892882343 	0
0.840868679324 	-0.0237553610449 	0
0.909309564064 	-0.0301582735918 	0
1.00228640225 	-0.0534683634931 	0
1.08878412909 	-0.0798442554944 	0
1.13422156911 	-0.0779078334217 	0
1.12631104641 	-0.0540550345866 	0
1.09557786864 	-0.0318368915575 	0
1.07232817687 	-0.0192959587099 	0
1.05599400261 	-0.0120850484493 	0
1.04441492193 	-0.00738597760736 	0
1.03698724081 	-0.00465748284299 	0
1.03159921171 	-0.00271215250328 	0
1.02823970472 	-0.00154396911156 	0
1.02461044364 	-0.00196140559255 	0
1.02581308464 	-0.00381520809353 	0
1.02717035092 	-0.00704700554033 	0
1.02831578112 	-0.0125869154633 	0
1.02809324226 	-0.0220021082567 	0
1.02358426373 	-0.0379267834513 	0
1.00783456089 	-0.0637067308246 	0
0.975519586638 	-0.094194311921 	0
0.925820979933 	-0.117374732094 	0
0.870060971497 	-0.133667389704 	0
0.833250757029 	-0.151529789048 	0
0.824123140328 	-0.170704430474 	0
0.847925521229 	-0.184974831842 	0
0.91393398942 	-0.186903417525 	0
1.00241968361 	-0.178274646634 	0
1.07375670841 	-0.159633288465 	0
1.10063978771 	-0.123897885443 	0
1.09107150467 	-0.0816213620702 	0
1.07291475718 	-0.0502813506102 	0
1.05905015437 	-0.031447830636 	0
1.04769951593 	-0.0194126840178 	0
1.03923051047 	-0.0118419279772 	0
1.03368931508 	-0.00726697074609 	0
1.02949521885 	-0.00426790578999 	0
1.02685365543 	-0.00246405195912 	0
1.02644831306 	-0.00239553289077 	0
1.02889964052 	-0.00450721577754 	0
1.03234154118 	-0.00806147143795 	0
1.03704631439 	-0.0140101806323 	0
1.04293838937 	-0.0239014404318 	0
1.04857915488 	-0.04088762641 	0
1.04340708295 	-0.0703415295754 	0
1.01211706122 	-0.113611304297 	0
0.956408431927 	-0.155288548001 	0
0.896899527139 	-0.188072267435 	0
0.858926308053 	-0.217687992626 	0
0.845648218029 	-0.240683496232 	0
0.855748707873 	-0.255953307536 	0
0.90121078849 	-0.254384399496 	0
0.970567424748 	-0.231185132796 	0
1.03001391949 	-0.18959921774 	0
1.0526227073 	-0.13847812613 	0
1.04962734197 	-0.0933926237987 	0
1.0450910776 	-0.0597243853671 	0