1.01417849157 	-0.00803332120375 	-1.8236411841e-21
1.01548348784 	-0.0125952428877 	-1.38696611648e-21
1.01704073097 	-0.0177380125828 	5.12620354178e-22
1.01885467007 	-0.0238737338553 	-5.81822807197e-24
1.02053568981 	-0.0311246552565 	-5.60135456588e-22
1.02155193774 	-0.0398954604897 	-2.8410854964e-22
1.02085798308 	-0.0500023068176 	-3.22655889553e-22
1.01642899189 	-0.0600578557328 	-1.6044621559e-21
1.00662034812 	-0.0720230746716 	2.27068862778e-20
0.986912932917 	-0.0780703794526 	1.67931097158e-21
0.958702271767 	-0.0725696913162 	4.48977865663e-23
0.929576844428 	-0.0471297460983 	2.03675549229e-21
0.916413088253 	-0.00321070855534 	-3.34961214464e-24
0.930489933317 	0.0403841722118 	2.37397323677e-22
0.959694210665 	0.0650927801608 	-1.46702898886e-21
0.987191378191 	0.0704660466907 	1.69338089232e-21
1.00588527682 	0.0649537907757 	1.62939992815e-20
1.0151889457 	0.0542280475257 	-1.25627110923e-21
1.01927005385 	0.0455170762635 	-1.21396754969e-21
1.02003935845 	0.0367583260491 	2.51748584531e-22
1.01921566226 	0.0290667221681 	5.37705770513e-22
1.01780911838 	0.0225764164141 	2.36400392823e-24
1.01628936437 	0.0170045549932 	-2.88790735027e-22
1.01497452605 	0.0121951474607 	6.28808051229e-22
1.01387708328 	0.00781116374248 	6.30899180728e-22
1.01865857298 	-0.00844303347151 	6.36868022622e-22
1.02051606967 	-0.0132373695827 	1.27103197911e-21
1.02298302333 	-0.0189156833161 	7.98183556631e-22
1.02595199061 	-0.0257274179322 	-1.66294219159e-22
1.02920733214 	-0.0340955872345 	8.33400965274e-22
1.0320697415 	-0.044706493406 	-3.62497127674e-22
1.03335934254 	-0.0579466567372 	6.42689953179e-22
1.03106645584 	-0.0747123801098 	2.12284488197e-22
1.02068757158 	-0.0946943448674 	-6.83804816016e-22
0.995853957623 	-0.113787681837 	-2.90322293405e-21
0.947885678215 	-0.121928054502 	-4.0388452254e-21
0.881055502881 	-0.0905681021481 	1.02912799156e-20
0.844866828372 	-0.00274862698857 	1.67078812302e-22
0.883468689329 	0.0835221287044 	9.4244895601e-21
0.949846554029 	0.112568762369 	-7.71656972436e-21
0.995925949138 	0.103769574668 	-1.80929007083e-21
1.01892671521 	0.0856339184485 	-3.94097061812e-22
1.02805981592 	0.0675609564551 	-2.3309092367e-22
1.0301661732 	0.0529486829947 	-4.35024917621e-22
1.02914144545 	0.0414568842969 	2.28865649387e-22
1.02683849873 	0.0321919547997 	-5.56476913617e-22
1.0242217827 	0.0246925755682 	9.34265072013e-23
1.0218014723 	0.0184524772595 	-2.88267228185e-22
1.01977494926 	0.013064454703 	-5.21186781333e-22
1.01823514255 	0.00838928425229 	-9.98845049717e-23
1.02318955177 	-0.00843307815796 	1.29304096075e-23
1.02577625485 	-0.0130762192504 	5.75822582082e-22
1.02927372359 	-0.0189087700185 	-5.30396792316e-22
1.03368507368 	-0.0259482466174 	-2.70638258213e-24
1.03903658288 	-0.0348334916109 	2.4313393457e-22
1.04485618324 	-0.0466289369608 	2.13884818026e-22
1.05014660486 	-0.0625194128398 	-4.67548350432e-22
1.0528440934 	-0.0844740370104 	-1.23814333037e-21
1.04860795619 	-0.114838042695 	-1.18876704288e-22
1.02749751839 	-0.157190279812 	1.08886495279e-21
0.962944936668 	-0.206310555793 	1.57882198225e-20
0.80641796007 	-0.209864840959 	-2.07333803542e-21
0.66767173757 	0.000864690616841 	-2.65381924785e-21
0.814344359924 	0.204987983497 	-3.62143298431e-21
0.967638729924 	0.194750813769 	9.70481772623e-21
1.02681567423 	0.144021890691 	-4.67297131065e-22
1.04448440077 	0.10393981774 	2.61910639899e-24
1.04723069063 	0.0768149485579 	2.41433185864e-22
1.0446256916 	0.0578436613772 	1.2818526839e-23
1.04024954488 	0.044206970002 	1.42485033513e-23
1.03557557925 	0.033836772619 	-8.23838438829e-23
1.03131228567 	0.0257099700708 	-4.39464775846e-25
1.02775354196 	0.0190813307767 	1.09189947173e-22
1.02490815561 	0.0133931635861 	-1.60785978256e-22
1.02278963378 	0.00863330598544 	-1.89901396249e-22
1.02762745861 	-0.00784110365999 	5.27940841428e-23
1.03089690518 	-0.0121891646412 	-1.37927831991e-23
1.03542863414 	-0.0175845268845 	9.18105427848e-23
1.04148116181 	-0.024201914129 	-5.67916894995e-23
1.04918488372 	-0.0326690797069 	-8.06377247121e-23
1.05864142646 	-0.0444027972494 	-6.43652375972e-23
1.06953922354 	-0.0610308746617 	-1.11899355193e-23
1.08103129082 	-0.0854910947184 	-2.98029637651e-22
1.09100276189 	-0.123106601353 	1.58975767375e-22
1.09376685535 	-0.185656617246 	-5.59054655328e-22
1.07057324306 	-0.305867931872 	1.82366989762e-22
0.854718900329 	-0.58705856523 	-1.91385043099e-21
0.881240002117 	0.580104954181 	4.69721468745e-22
1.07988206874 	0.286492172281 	-1.79728274234e-21
1.09106460657 	0.167167105186 	-1.93574616615e-21
1.08237815475 	0.110281675769 	-5.58335532542e-22
1.07133665925 	0.0785566053228 	7.96122110948e-22
1.06110619955 	0.0582035442035 	3.71673011392e-22
1.05224331079 	0.0440599552774 	-5.21476723493e-23
1.04479891192 	0.033498899526 	-9.42686644336e-23
1.03869158499 	0.025386105964 	-6.87468083094e-23
1.03383883997 	0.0187736889983 	-2.53597596305e-23
1.03013163941 	0.0131851782969 	-2.87465442106e-23
1.02742543608 	0.00847175113624 	3.3569336979e-24
1.03166467772 	-0.0066548341413 	-2.79523018602e-23
1.03548359746 	-0.0105699223818 	2.17087915365e-23
1.04091041647 	-0.0149926418489 	1.3636695024e-23
1.04847549638 	-0.0204769803505 	3.08152579956e-25
1.05842879952 	-0.0275428465315 	-3.72218521019e-23
1.0716126058 	-0.0374121479605 	-3.27125942734e-24
1.08864627319 	-0.0518009535938 	-5.17017547422e-24
1.11030588055 	-0.0737648986138 	2.59934798699e-23
1.13814950136 	-0.108858604614 	-4.50176402574e-22
1.17648275548 	-0.166856978293 	-2.0438822855e-22
1.25053052489 	-0.266341944015 	1.91692128396e-22
0.0444880020953 	0.00139679347738 	-2.09162818146e-21
1.26128452094 	0.227898783364 	-2.64032679085e-22
1.16520830565 	0.139497820974 	3.65646269779e-22
1.12062799362 	0.0954606441604 	1.00167326464e-21
1.09453931791 	0.070047164685 	-2.98540221126e-22
1.07689886646 	0.0530490339216 	-3.54443979929e-24
1.06382957013 	0.040664926262 	7.5468990521e-24
1.0536995344 	0.0311284183159 	9.05138642641e-23
1.04584392925 	0.0236229266993 	-2.81837729839e-25
1.03972048303 	0.0174812915271 	5.72156608048e-23
1.03518094324 	0.0123652460816 	5.43932636257e-23
1.0319210012 	0.00776892603154 	-2.18478748635e-23
1.0348149693 	-0.00545369002396 	1.05101645488e-24
1.03904407484 	-0.00816545897809 	-9.04068114499e-24
1.04517367087 	-0.0114030800429 	-1.76029477031e-23
1.053751398 	-0.0151071523664 	9.61348622384e-24
1.06532528889 	-0.0197278545403 	1.02767686688e-22
1.08141509772 	-0.0259975760938 	1.93620289313e-22
1.1033401173 	-0.0351372394121 	-1.14852588212e-21
1.13354262008 	-0.0494851064124 	4.59591130822e-22
1.17545746432 	-0.072734741124 	1.56492759307e-21
1.23469373739 	-0.109237482693 	-9.62614345873e-21
1.30220406653 	-0.147626901024 	2.5221610421e-20
0.076240645056 	-0.0335018100937 	1.24749616995e-21
-0.000604400323813 	0.0035562110438 	-4.22448230861e-22
0.196180468915 	0.0197764177272 	-6.22568548219e-23
1.30140792148 	0.0708850861557 	-3.63581610634e-20
1.19842227308 	0.0728229581598 	1.08337507447e-20
1.14217442753 	0.0645473006764 	9.83525674404e-22
1.11029863785 	0.0539764851996 	3.48466441777e-22
1.08900440561 	0.0436495314042 	1.44372717643e-21
1.07351620485 	0.0345512770395 	-2.51053336464e-22
1.06145802867 	0.0268518248444 	-2.22705800173e-22
1.05221765264 	0.0204833957357 	-1.01240413337e-23
1.04502496104 	0.0152477935867 	-3.67137754033e-23
1.03967078431 	0.0107178890451 	-8.08129723726e-23
1.03587158455 	0.0069390342812 	-1.61246141651e-22
1.03719684873 	-0.00381428232572 	-6.2626718555e-24
1.0414156893 	-0.00542514042094 	-1.9204587713e-22
1.04782512573 	-0.00729753669816 	2.64147673458e-22
1.05671244592 	-0.00891499243195 	-2.4770982661e-24
1.0689566343 	-0.010489860626 	-3.18300226741e-22
1.08607918946 	-0.0120067994952 	-3.49568505948e-22
1.11016850965 	-0.0137664989827 	1.04331059938e-21
1.14482005523 	-0.0166170695998 	3.86716585749e-21
1.19480813926 	-0.0226772338795 	9.44014375797e-22
1.26783880585 	-0.0388273063684 	3.73528063635e-21
1.30001177338 	-0.0605610021839 	2.57405100793e-21
0.273401746957 	-0.164191251507 	-3.51112559642e-21
-0.194255812534 	-0.238202862016 	-3.16794231698e-21
0.34758470335 	-0.163960287526 	-7.56411460148e-21
1.22408275919 	-0.0582556014305 	-2.94454763656e-21
1.18030343037 	0.0133007357372 	-3.04044967208e-21
1.14208215618 	0.0351227456702 	-1.1909586199e-22
1.11644132038 	0.0372789031951 	-4.14734869617e-21
1.09664995002 	0.0329477405725 	-1.29546397772e-21
1.08059493345 	0.0269942718082 	3.37176883384e-22
1.06769802161 	0.0212658407102 	4.25947257767e-22
1.05746896031 	0.0162679463189 	4.8875389452e-24
1.04944086154 	0.0121999100448 	-5.72715577393e-22
1.04341845098 	0.00849285712358 	5.08551224184e-22
1.03928867211 	0.00556747287994 	4.52249531377e-22
1.03870854423 	-0.00219446110664 	-1.59498892029e-22
1.0426896395 	-0.00283012849608 	-4.95768759598e-22
1.04876100496 	-0.00330604134939 	-3.47221080164e-22
1.05714808518 	-0.00294508496145 	6.4570465366e-23
1.06862114408 	-0.0014323877628 	-6.77100870853e-22
1.08471840067 	0.00200032523853 	4.9882022648e-22
1.10732464721 	0.00824112611228 	-1.26715742252e-21
1.13971444499 	0.0191690816624 	-9.58555447955e-23
1.19407214635 	0.0345175151577 	-3.13111351089e-21
1.27196460169 	0.0536780875517 	-3.85295071899e-21
1.31116522141 	0.0659562872536 	8.67381488423e-21
0.552238082319 	-0.126053300281 	1.25737775769e-20
-0.156636559648 	-0.351601643908 	6.07979235736e-22
0.213821115809 	-0.312861563905 	7.45742343139e-21
1.06595889659 	-0.0987120102561 	-1.45113490807e-21
1.13306053186 	-0.00190165774996 	-1.90657847294e-21
1.13165239688 	0.0204881776117 	-1.41515300486e-21
1.11728878833 	0.0256260194799 	2.69800915694e-22
1.10117317469 	0.0230364071433 	1.68291668061e-21
1.08595296673 	0.0188399381506 	-6.20893494315e-22
1.07214953001 	0.0148293808514 	9.70088995811e-22
1.06137747928 	0.0112800107135 	-1.15164169462e-22
1.05274325524 	0.00852849840598 	6.95266764203e-22
1.04631756527 	0.00593664208764 	8.90182419914e-22
1.04190616951 	0.0039400915863 	-1.74361287674e-23
1.03927016581 	-0.000902348830157 	4.81949209065e-22
1.04299168026 	-0.000755692889399 	4.65825810963e-22
1.04818827216 	-6.0035743834e-05 	-2.40809680149e-22
1.05537975865 	0.00181931920117 	-9.55945356776e-23
1.0648358967 	0.00582394783594 	3.20870397909e-22
1.07770374567 	0.0129577840591 	1.53015622187e-22
1.09573736498 	0.0267899306554 	-2.35290725413e-22
1.1185423278 	0.0464782833299 	8.10529460472e-22
1.15786570341 	0.0848661182129 	2.98476721256e-20
1.2231533044 	0.147894719457 	3.04512196703e-21
1.27283750948 	0.24542129749 	1.26360016188e-21
0.812023740653 	0.218184384905 	6.29855631764e-21
0.0500195443964 	0.00750114719245 	-3.9356020781e-22
0.0759838871198 	-0.136019441253 	1.50173747348e-21
0.91569675816 	-0.0162317260999 	-1.98190465474e-22
1.11061307954 	0.0321669891556 	7.23337154012e-22
1.12858165107 	0.0253232314523 	1.61730317372e-20
1.11964749592 	0.0192768560102 	3.53130414104e-22
1.10574025818 	0.0131515014232 	2.51540760477e-21
1.08918057932 	0.0101266587568 	-3.10582132042e-22
1.07508339486 	0.0076051969978 	-8.08552497506e-22
1.06381642609 	0.00567358960839 	1.6051917642e-22
1.05476268532 	0.00442994137651 	3.6148083872e-22
1.048187759 	0.00319234804573 	-7.99693376414e-22
1.0435254129 	0.00211543974063 	-6.88815870422e-22
1.03921731416 	9.91142459691e-05 	-6.48432525989e-22
1.04243345816 	0.000715614904578 	-2.82189926368e-22
1.04660271493 	0.00198524956378 	-4.12175171032e-23
1.05220232392 	0.00460361135838 	-2.43210455527e-22
1.05910626459 	0.00987440162193 	2.91719236452e-22
1.06750435223 	0.0191354646751 	-8.98031981502e-22
1.07476739607 	0.0335323991537 	-7.96007316906e-22
1.08615692431 	0.0618770443602 	-1.15014404088e-21
1.09973648384 	0.109858466359 	3.49502957239e-21
1.11435789325 	0.19536864178 	5.22732823072e-22
1.13606083452 	0.346280249949 	-6.31331350533e-21
0.84915299897 	0.461754040414 	-4.84446956493e-21
0.263058642254 	0.411622545256 	-9.43645085615e-22
0.185603083943 	0.240144930216 	-3.71998478349e-22
0.859505282441 	0.107520035237 	-1.27858194669e-22
1.14589385361 	0.0767151658781 	1.24265843666e-22
1.14958959318 	0.0254932671537 	1.6476068877e-21
1.12992730682 	0.00950677805032 	-5.73886260073e-22
1.10867498397 	0.00307988161524 	1.10291609614e-21
1.0907952696 	-0.00167693133067 	9.57896879593e-22
1.07672237296 	-0.00046876275178 	-1.59016538086e-21
1.06460069146 	-0.000387879326587 	3.39150019347e-22
1.05531423576 	6.66401252955e-05 	1.16809526129e-22
1.04879817369 	9.2349509938e-05 	8.71000863679e-22
1.0441676113 	9.81530033682e-05 	3.98076559351e-22
1.03876669252 	0.000641487280858 	7.6287277566e-22
1.04143392084 	0.00148678177395 	-1.64470950876e-21
1.04473195161 	0.00269692517666 	1.02382706798e-21
1.04885175641 	0.00520519319658 	5.37884342284e-24
1.05228565854 	0.00955242294515 	1.60325300368e-21
1.05477813295 	0.0166453564131 	-3.87375190846e-22
1.05605672263 	0.0306586407521 	-1.37441888756e-21
1.05115847489 	0.0546401673056 	6.74443930805e-23
1.03691419985 	0.0988768201576 	7.9675308628e-22
1.00391887306 	0.175476667753 	6.13789052255e-22
0.968352069505 	0.311635519055 	-3.63475321856e-21
0.761546868466 	0.455572705394 	4.93297341284e-23
0.335898601866 	0.550956879421 	-3.51009326755e-22
0.384968271069 	0.439181536995 	9.85413551984e-23
1.01165090342 	0.124929942703 	-4.37188242051e-21
1.21703534333 	0.0480758568184 	2.4659252727e-22
1.18523576944 	-0.00232649819285 	8.33022478818e-22
1.13843405291 	-0.0109254212199 	1.2216305029e-22
1.11112949973 	-0.0142448114917 	-2.21491360621e-21
1.089984994 	-0.0107570624923 	-7.62684058665e-22
1.07484458109 	-0.00891481354168 	2.00713695858e-21
1.06300668612 	-0.00725105703242 	-1.42476092089e-24
1.05425649946 	-0.00427067468538 	-1.97561384566e-21
1.04812289845 	-0.00314832465328 	3.35176766813e-21
1.04365530697 	-0.00157071076211 	-1.13442627358e-22
1.03821109301 	0.00091428474061 	-5.47418934849e-22
1.04056600484 	0.00162670787346 	-2.91053700501e-23
1.04320311123 	0.00282111391987 	1.73724308055e-21
1.04561208429 	0.00371867343324 	-8.58533503243e-22
1.04762355557 	0.00587094885187 	1.29897525635e-21
1.04770789012 	0.0100006017131 	-1.38886282938e-21
1.04124722774 	0.0170377276853 	1.49039840459e-22
1.02674195101 	0.0294074559092 	-6.33480494053e-24
0.986034075999 	0.0566589297548 	-5.54479211362e-23
0.923378227854 	0.0959968489247 	4.25722490872e-23
0.825594212649 	0.181176583972 	-9.72686921068e-23
0.559247837801 	0.373671025959 	4.63076498018e-23
0.39199168401 	0.399468285712 	-2.21548884815e-22
0.678946983945 	0.188427771111 	-3.07636795082e-21
1.13498364239 	-0.0406853447504 	2.14835424898e-22
1.25799262701 	-0.0647100917483 	-3.47805838273e-21
1.19937043577 	-0.057427137047 	2.74563699984e-21
1.13459726905 	-0.0438126439087 	2.23385984498e-23
1.10736139442 	-0.0333551574621 	4.6447281879e-22
1.08416530465 	-0.0237867734398 	-3.03967758902e-21
1.07024543431 	-0.016843941042 	2.52112730989e-21
1.05906360279 	-0.0114909366489 	-4.32245395626e-22
1.05096140277 	-0.00873646937603 	-4.00108370534e-21
1.04642292024 	-0.0059465466298 	-1.02684364121e-22
1.04223600069 	-0.00313768567092 	7.92123243636e-22
1.03748313122 	0.00137633877091 	3.83832981545e-22
1.0398987709 	0.00168009609034 	-2.03799422275e-22
1.04212998883 	0.00174813224409 	-1.30331177236e-22
1.04533688205 	0.00189282064446 	1.31472233492e-22
1.04729233457 	0.00181248850296 	1.47197073314e-22
1.0462375331 	0.000730096025594 	2.48381227872e-22
1.03954988047 	-0.00265528028059 	7.96082407049e-23
1.02045155903 	-0.00541991823688 	1.47260862934e-22
0.973223572039 	-0.0113629455868 	2.11005705896e-23
0.888833218839 	-0.0159602491866 	-1.67044018147e-22
0.685497936058 	0.0609948537225 	4.18272010577e-22
0.502728332022 	0.111511413622 	3.41158104904e-22
0.576283883967 	-0.0254375765939 	-6.23782212425e-22
0.905841098925 	-0.214385436625 	2.33204474238e-21
1.16151122109 	-0.241446882354 	2.59831464217e-21
1.21729474119 	-0.180073676937 	2.35462847049e-22
1.16032292117 	-0.110895036434 	-1.10358000972e-22
1.1114560152 	-0.0740142230048 	-1.26437049351e-22
1.09187351805 	-0.0499888661096 	1.26098074811e-22
1.07409799725 	-0.0345249861612 	9.8722231753e-22
1.06259136962 	-0.0232577846801 	3.53783043321e-22
1.05347977127 	-0.0157773273597 	2.71935398101e-22
1.04729382223 	-0.0104640060817 	-4.83996596574e-22
1.04353582673 	-0.00729257976282 	-1.27971900496e-21
1.03983682269 	-0.00440897271698 	-8.60396757394e-22
1.03687649688 	0.00162935955347 	-8.21758280955e-22
1.03902781598 	0.00161307187947 	2.62998297519e-22
1.04270827124 	0.00178452410591 	1.82464727583e-23
1.04624911876 	0.000928462262157 	2.4087289111e-23
1.04975791364 	-0.000931699862898 	5.13734682404e-23
1.05333711919 	-0.00701482370037 	3.05585239795e-22
1.05331229302 	-0.0179731083898 	-3.95516682761e-22
1.04736796795 	-0.0396961148663 	1.02851395209e-23
1.01616462063 	-0.0952979632098 	-4.26971731896e-23
0.882108516724 	-0.134251875877 	1.18156959241e-23
0.659297726038 	-0.17500048543 	4.65207052859e-22
0.596282376122 	-0.237566220859 	1.550986466e-24
0.707072179609 	-0.322521482827 	-4.53948110846e-22
0.927838674166 	-0.368325866622 	1.14755214189e-21
1.08868850635 	-0.326293169375 	4.53594488559e-22
1.12267167901 	-0.229273932059 	-2.26771987149e-24
1.08946236582 	-0.140283044371 	3.43030909124e-23
1.07626535557 	-0.0909575810509 	4.57111775702e-23
1.0676188362 	-0.0600231009382 	1.19381384316e-21
1.05919585774 	-0.0393948396282 	-3.53640538164e-22
1.05259867492 	-0.026125785823 	-5.26535602371e-22
1.04746461025 	-0.017639573793 	7.1819517871e-23
1.0428659346 	-0.0118306274548 	-8.61360044255e-24
1.03929640525 	-0.00779797551039 	1.08229334041e-21
1.0369887407 	-0.00504524548712 	1.98481697807e-22
1.03622177154 	0.0011880915028 	-1.16325161284e-22
1.03934051702 	0.0020540528355 	-1.299729266e-22
1.04371051872 	0.00194861812809 	5.57046774768e-23
1.04900198505 	0.000768090143277 	5.05847661047e-23
1.05595021619 	-0.00204173122313 	3.37186077451e-23
1.06394212145 	-0.00985767225033 	-1.98857604887e-22
1.07614656594 	-0.0229414783411 	-2.91681645206e-23
1.09487029253 	-0.0572150123016 	4.62707291412e-22
1.08440653549 	-0.118734735154 	-2.73305689726e-22
0.953312216637 	-0.220113417248 	-2.94893342586e-22
0.760425112365 	-0.337427915473 	3.2138738472e-22
0.67202727556 	-0.412255527473 	0
0.733985721171 	-0.435637386215 	-1.39966364661e-35
0.884635735126 	-0.401172129917 	-2.2189324438e-24
0.98995056499 	-0.314758102434 	-3.95958232071e-22
1.01848011146 	-0.21083655726 	2.34928239057e-22
1.02793565689 	-0.1313909465 	3.47152114613e-22
1.03739426439 	-0.0847049855789 	-4.35127924474e-22
1.04208883064 	-0.0560811562179 	3.33081367669e-23
1.04185134199 	-0.0368502369461 	4.41855696667e-22
1.04122419149 	-0.0246075361794 	1.88784290965e-22
1.03969215722 	-0.0168688583321 	-6.17167941737e-24
1.03760986827 	-0.0111766077298 	2.03952935437e-22
1.03585178615 	-0.00725330290565 	-6.88635642792e-22
1.0342383294 	-0.00429626976365 	-6.47715872841e-22
1.03550164833 	0.001942238078 	0
1.03879643849 	0.00302185722516 	0
1.04355465495 	0.00365293957222 	0
1.05015400557 	0.00327710920021 	0
1.06005291703 	0.00305618945861 	0
1.07380103211 	-0.00203838122356 	0
1.09703392458 	-0.00954911075711 	0
1.13737514832 	-0.0270712848768 	0
1.1665664872 	-0.0658860358813 	0
1.07131400334 	-0.151534095666 	0
0.857891825239 	-0.284557346538 	0
0.71349978772 	-0.385027702357 	0
0.712942183988 	-0.413090937297 	0
0.803170065601 	-0.368721913057 	0
0.889017601362 	-0.268882778055 	0
0.935930214905 	-0.173385377078 	0
0.974852479745 	-0.110437954067 	0
1.00541078208 	-0.0702848743041 	0
1.02212419036 	-0.0449796947076 	0
1.0289941265 	-0.0292264798574 	0
1.03297295967 	-0.0196354360243 	0
1.03426899115 	-0.0133963079034 	0
1.03384359357 	-0.00908406536106 	0
1.03316048974 	-0.00611186807193 	0
1.03224697055 	-0.00374308180737 	0
1.03430974596 	0.00288188055423 	0
1.03751561107 	0.00444713480712 	0
1.04250122541 	0.00636388069581 	0
1.04901377178 	0.00779024455279 	0
1.05992231444 	0.0111446005997 	0
1.07530048333 	0.0129620336515 	0
1.09951860437 	0.0166156637394 	0
1.1457194797 	0.0248635183019 	0
1.20144538662 	0.0331128832278 	0
1.16503298199 	0.0166488683522 	0
0.989242462416 	-0.0689526926936 	0
0.805205049559 	-0.182509620332 	0
0.722395762606 	-0.239641473676 	0
0.736524536305 	-0.22524251882 	0
0.79401642854 	-0.159109383629 	0
0.863511126436 	-0.0929724361744 	0
0.930173481818 	-0.0566663492521 	0
0.976595219852 	-0.0348924252551 	0
1.00485172064 	-0.0213716165706 	0
1.01960439368 	-0.0144065134264 	0
1.02721702051 	-0.0104806412368 	0
1.03055648756 	-0.00757518831596 	0
1.03137806991 	-0.00563707565121 	0
1.03122207731 	-0.00412770228017 	0
1.03061010363 	-0.0026895884489 	0
1.03268840829 	0.00366000140885 	0
1.03548572811 	0.0058168584031 	0
1.04007852545 	0.00888890730125 	0
1.04563239549 	0.012470055824 	0
1.05522078479 	0.0184832937747 	0
1.0683710805 	0.0265512962192 	0
1.08644291661 	0.0394380804844 	0
1.12202788705 	0.0622834675458 	0
1.17246067051 	0.101344309981 	0
1.17126690404 	0.148637385529 	0
1.06724261495 	0.150810005195 	0
0.902163998412 	0.0918837168882 	0
0.768397361011 	0.0375267968919 	0
0.728529417396 	0.014709813573 	0
0.757584770191 	0.0216161976679 	0
0.830767395104 	0.0375784321252 	0
0.914714510181 	0.0356379801371 	0
0.969456221713 	0.024515740676 	0
1.00129733738 	0.0131006421084 	0
1.01834248741 	0.00549261638855 	0
1.02623178102 	0.00096534812404 	0
1.02967238894 	-0.00108454681473 	0
1.03051107377 	-0.0018996582574 	0
1.0302335286 	-0.00193547057526 	0
1.02953590019 	-0.00147200587728 	0
1.0305279371 	0.00410739168295 	0
1.03265548194 	0.00665887381268 	0
1.03616058562 	0.0103736809861 	0
1.04025481218 	0.0153886268545 	0
1.04691334612 	0.0228836696363 	0
1.05560013197 	0.0344317001553 	0
1.06607491247 	0.0519269247664 	0
1.0851635482 	0.0793045703731 	0
1.11197399052 	0.128084325021 	0
1.11181218949 	0.199000059462 	0
1.05153946046 	0.255931722015 	0
0.928348151811 	0.267030830325 	0
0.804307581004 	0.249059968147 	0
0.754652756772 	0.217626815619 	0
0.771936690558 	0.189570777172 	0
0.84627297199 	0.164650582137 	0
0.94040196087 	0.126364741037 	0
0.997745566233 	0.0806974329783 	0
1.02199817593 	0.0436368893173 	0
1.03021860573 	0.0226756725316 	0
1.03253982942 	0.0106635245381 	0
1.03275468291 	0.00436729220469 	0
1.03170363623 	0.00123706449412 	0
1.03045537839 	-0.000137641327763 	0
1.02926570679 	-0.000461507248087 	0
1.02799083783 	0.00398567567093 	0
1.02929025534 	0.00649671554142 	0
1.03125461892 	0.0100961463718 	0
1.03333841717 	0.0153290741493 	0
1.03610604971 	0.0232368047924 	0
1.03914240895 	0.0360132686604 	0
1.04157978399 	0.0558403777193 	0
1.04459482153 	0.0857810981227 	0
1.04700973248 	0.135826689387 	0
1.03255684375 	0.206619376031 	0
0.991063032916 	0.285157416177 	0
0.907288661493 	0.334745564682 	0
0.818822809646 	0.33747702249 	0
0.787556342885 	0.312583061449 	0
0.809829965574 	0.276552537145 	0
0.893265070376 	0.228951270043 	0
0.997956124596 	0.164266416286 	0
1.05290278103 	0.0972868561862 	0
1.06014550919 	0.0516523847375 	0
1.05149746171 	0.0277476674131 	0
1.04429984066 	0.0137761133806 	0
1.03894742695 	0.00652584860584 	0
1.03476242646 	0.00255763611725 	0
1.03173791336 	0.000638783124205 	0
1.02959715123 	-1.9538700379e-05 	0
1.02571185599 	0.00303790120905 	0
1.02625650881 	0.00494777713841 	0
1.02672537619 	0.00768263869269 	0
1.02654423475 	0.0118681864846 	0
1.02512795606 	0.0186846565967 	0
1.02179808736 	0.0300999468036 	0
1.014953372 	0.0492538060627 	0
1.00387241149 	0.078322808704 	0
0.987453261739 	0.123248947884 	0
0.954817152859 	0.184935275129 	0
0.916227731336 	0.261513618783 	0
0.869222026824 	0.325637718064 	0
0.822911162304 	0.341679829594 	0
0.813800772746 	0.322280365155 	0
0.853083923554 	0.279549698628 	0
0.960113475666 	0.207956160626 	0
1.074324395 	0.124745348865 	0
1.11154656463 	0.0630915814956 	0
1.09382382276 	0.0333720919777 	0
1.07005442459 	0.0183237063885 	0
1.05480562094 	0.00888092842811 	0
1.04465635877 	0.0043243612659 	0
1.03789590836 	0.00150534273292 	0
1.03312983977 	0.000229683330289 	0
1.0300029193 	-0.000157314074619 	0
1.02432518906 	0.0014989368418 	0
1.02445488748 	0.00239286938303 	0
1.02400183129 	0.00366014849533 	0
1.02214352294 	0.0055092794792 	0
1.01749734265 	0.00873996619696 	0
1.00847705669 	0.0143046187274 	0
0.993052940416 	0.0252764258836 	0
0.970951777301 	0.0429585027484 	0
0.939690466536 	0.0723458992217 	0
0.89117912279 	0.11620527132 	0
0.847369049949 	0.169929012378 	0
0.82448171679 	0.226294175095 	0
0.820144334098 	0.251385451471 	0
0.848334693602 	0.232845975542 	0
0.925730796681 	0.172636442314 	0
1.04998633136 	0.0883929856548 	0
1.1419614058 	0.0269747301977 	0
1.14382697616 	0.00395141054444 	0
1.10611318056 	0.00198117257565 	0
1.07710138505 	0.000774457915611 	0
1.05885006755 	-0.000821179332759 	0
1.04669826725 	-0.000945069337778 	0
1.0390696275 	-0.0012504027371 	0
1.03357035453 	-0.00100526258924 	0
1.03005226536 	-0.000745283313968 	0
1.02403177239 	-2.41311953771e-06 	0
1.02422528248 	-0.000253908767037 	0
1.02378669639 	-0.000897004843063 	0
1.0218716942 	-0.00235007950896 	0
1.01675183118 	-0.00485578190913 	0
1.00593766697 	-0.0091491456062 	0
0.986622896678 	-0.0143432982888 	0
0.957537002833 	-0.0185179885665 	0
0.914233889886 	-0.0138405751432 	0
0.85574582097 	0.00225387343462 	0
0.808882351127 	0.020479822107 	0
0.795959238083 	0.0387848474255 	0
0.824145889783 	0.0467021010288 	0
0.897274274983 	0.0297685431046 	0
1.0043880691 	-0.0171608968738 	0
1.11115616199 	-0.0624917242984 	0
1.1583324292 	-0.0661157077181 	0
1.13620130045 	-0.0450613144335 	0
1.09777809136 	-0.0262781351154 	0
1.07301778762 	-0.0163005025615 	0
1.05643347891 	-0.0107695216665 	0
1.04492587109 	-0.0068931717048 	0
1.03781658417 	-0.00464247444969 	0
1.03259137079 	-0.00281927301056 	0
1.0293510213 	-0.00173733007525 	0
1.02465981919 	-0.00111108237711 	0
1.02549277944 	-0.00236224802971 	0
1.02618465555 	-0.00481683415055 	0
1.02628869243 	-0.00928135226852 	0
1.02441849747 	-0.0170443517909 	0
1.01818255361 	-0.0304879473576 	0
1.00221830517 	-0.0523787263583 	0
0.97052727422 	-0.0802860985539 	0
0.917985998066 	-0.102062416927 	0
0.854309699066 	-0.114494523256 	0
0.810489532415 	-0.126799799928 	0
0.801423845114 	-0.143696722442 	0
0.83635797288 	-0.158722392124 	0
0.920975760766 	-0.167474189806 	0
1.02350271714 	-0.170167914854 	0
1.10191514616 	-0.155802197815 	0
1.12463569113 	-0.117046333096 	0
1.1033728285 	-0.0740084360599 	0
1.07822382287 	-0.0453203971977 	0
1.0620301863 	-0.0286949391714 	0
1.0496867611 	-0.0182367330213 	0
1.04063127128 	-0.011542045782 	0
1.03491151939 	-0.00741830721505 	0
1.03056934091 	-0.00450768650554 	0
1.0279233525 	-0.00269212195158 	0
1.02590208392 	-0.0017797208328 	0
1.0278574399 	-0.00355977252897 	0
1.03050248093 	-0.00684803964293 	0
1.03397435368 	-0.012536887974 	0
1.0379006877 	-0.0221886498677 	0
1.0413213284 	-0.0390513031805 	0
1.03630063419 	-0.068251825214 	0
1.0070881497 	-0.112008345171 	0
0.948271770257 	-0.15592996465 	0
0.879539807592 	-0.189794218943 	0
0.835964043779 	-0.219814067672 	0
0.825387542835 	-0.246816850072 	0
0.847040770694 	-0.265523875444 	0
0.910402226739 	-0.265744433166 	0
0.991253170968 	-0.240172290527 	0
1.05343731435 	-0.193251961098 	0
1.07239485189 	-0.137089499526 	0
1.0622043176 	-0.0888694726461 	0
1.05292662831 	-0.0563602527742 	0
1.04633028243 	-0.0354519974505 	0
1.03970623193 	-0.0219459326914 	0
1.03447696828 	-0.0135874373696 	0
1.03095657891 	-0.00846201321232 	0
1.02802769038 	-0.00509258404827 	0
1.02614805411 	-0.00298897257961 	0
1.02741980344 	-0.00179037227281 	0
1.03054091402 	-0.00341099660248 	0
1.03515122377 	-0.00618687212661 	0
1.04182942551 	-0.0109121390362 	0
1.05142373176 	-0.0185226691874 	0
1.06489399689 	-0.0320893660824 	0
1.07576178964 	-0.0551957297776 	0
1.05819401051 	-0.0987215899767 	0
0.996250607487 	-0.157273912363 	0
0.917773479352 	-0.208733272795 	0
0.866672693677 	-0.249104874314 	0
0.848239735701 	-0.276613129711 	0
0.854050048467 	-0.291798110398 	0
0.891005845372 	-0.286097774354 	0
0.943229416395 	-0.248660659588 	0
0.992416061043 	-0.191179328483 	0
1.01761865039 	-0.132500508352 	0
1.02088543749 	-0.0876510965479 	0
1.02453227538 	-0.0562758428081 	0
1.02740717243 	-0.0342235644634 	0
1.02770718563 	-0.0204271591032 	0
1.02722329241 	-0.0121864332284 	0
1.02644989955 	-0.0073249099061 	0
1.02526008504 	-0.00427279314017 	0
1.02430260265 	-0.00244263303477 	0
1.02864680909 	-0.00100832230005 	0
1.03246058888 	-0.0018359129405 	0
1.03829162909 	-0.00311677443571 	0
1.0468057792 	-0.00540570676661 	0
1.05975133302 	-0.00864320729805 	0
1.07897324125 	-0.0147787783937 	0
1.10298982453 	-0.023720609127 	0
1.10836499674 	-0.0469172386742 	0
1.05940863174 	-0.0966519436716 	0
0.972454427351 	-0.159612445522 	0
0.903440025686 	-0.215722374337 	0
0.867007938456 	-0.247575529412 	0
0.85396556774 	-0.257279151869 	0
0.865099505522 	-0.241251732872 	0
0.8915998343 	-0.197653807927 	0
0.93237950843 	-0.144988800033 	0
0.968215827948 	-0.0955978285421 	0
0.985499003734 	-0.0607782576236 	0
0.998981793683 	-0.0376681778076 	0
1.01011346984 	-0.0213364398332 	0
1.01725555133 	-0.0121172071574 	0
1.02113491103 	-0.00692367086604 	0
1.02278040931 	-0.00404517654168 	0
1.02304585641 	-0.0022554784568 	0
1.02286841733 	-0.00126000388292 	0
1.02895481131 	0.000253901539537 	0
1.03280592237 	0.000519585896137 	0
1.03887644417 	0.00103896013432 	0
1.04759410443 	0.00162820665129 	0
1.06105311152 	0.00312607792191 	0
1.08057955734 	0.00507409806787 	0
1.10790894447 	0.009970574594 	0
1.13089535517 	0.0145551367281 	0
1.10956998078 	0.00193479682416 	0
1.0376034742 	-0.0383505554757 	0
0.956289001529 	-0.0902068660015 	0
0.891115502291 	-0.120092595612 	0
0.849253540198 	-0.124238269794 	0
0.83633625916 	-0.10964274288 	0
0.84978467258 	-0.0828178253859 	0
0.888867113976 	-0.0540000312516 	0
0.933509457418 	-0.0256625123491 	0