1.01406894232 	-0.00772639278352 	-9.64455173412e-22
1.01545235955 	-0.0120700396313 	-7.48904145315e-22
1.01714157623 	-0.0169640517221 	3.05566492502e-22
1.01919250018 	-0.0227608705787 	-2.55332005321e-23
1.02124195201 	-0.0296636059836 	-3.03288119374e-22
1.02278656523 	-0.0380575130158 	-1.95600202619e-22
1.02281490369 	-0.0479309983055 	-2.18083623581e-22
1.01941004498 	-0.0582801966605 	-1.21323602119e-21
1.01056104452 	-0.0707730114917 	1.80624005293e-20
0.99150442274 	-0.0782296740803 	1.48043322676e-21
0.96298140479 	-0.0746762532259 	7.27718739807e-23
0.932218997407 	-0.0510893583845 	1.9548103979e-21
0.916364630108 	-0.00799674241738 	-5.35208140934e-24
0.927668380104 	0.0364665228786 	2.08964240198e-22
0.955281948823 	0.0630817890445 	-1.63416200261e-21
0.982533987812 	0.0704221421017 	1.96961601297e-21
1.00193460593 	0.0663110428884 	2.12448528464e-20
1.01222846162 	0.0560911882508 	-1.73732616535e-21
1.0173844056 	0.0476672241305 	-1.85005386909e-21
1.01886371945 	0.03863673046 	3.93591326394e-22
1.01856960022 	0.0305516727565 	1.00647311747e-21
1.0175319393 	0.0237009019348 	-3.9967596417e-23
1.01624177853 	0.0177813009902 	-5.20914111093e-22
1.015052818 	0.0127225994399 	1.25609296426e-21
1.01402772759 	0.00811720834504 	1.26455955351e-21
1.01833343151 	-0.00806252440487 	2.95832755861e-22
1.02019324279 	-0.0125749050282 	6.11838436685e-22
1.02269792119 	-0.0178582709082 	2.80422959561e-22
1.02579961319 	-0.0241096754258 	-8.78734934894e-23
1.02932812364 	-0.0317832130895 	4.71402997246e-22
1.03276868758 	-0.0415832525297 	-1.89308889485e-22
1.03502055758 	-0.0540532751876 	3.04984531898e-22
1.03408412367 	-0.0703144372399 	1.31592140717e-22
1.02577186008 	-0.0908032454396 	-4.95742147525e-22
1.00260136572 	-0.111610192782 	-2.20409083581e-21
0.955160621996 	-0.123166994369 	-3.39232916908e-21
0.886047970464 	-0.095796907396 	9.83987246675e-21
0.844763858476 	-0.00980024819666 	1.67930839819e-22
0.878234554577 	0.0784365825301 	1.00133942738e-20
0.942410151754 	0.111524848635 	-9.08120469624e-21
0.989117709294 	0.106154419911 	-2.52082462266e-21
1.0138785739 	0.0897309874776 	-5.93586633563e-22
1.02510389538 	0.0721031210412 	-3.97612406121e-22
1.0285831215 	0.0569439261268 	-9.86542601979e-22
1.02853109203 	0.0446543747361 	4.81193985044e-22
1.02679820247 	0.0345550243053 	-1.05804977846e-21
1.02444296861 	0.0263416675746 	1.9043312184e-22
1.02214381169 	0.019535448144 	-9.16416073206e-22
1.02014883167 	0.013741363539 	-1.16292072184e-21
1.01860351253 	0.00878476837637 	-7.27336575642e-23
1.02261489068 	-0.00807425839647 	6.37550121007e-24
1.02507045376 	-0.0124169550647 	1.64779644906e-22
1.02845379511 	-0.0177494826626 	-1.11828367787e-22
1.03279551281 	-0.0240620855322 	4.75326135581e-25
1.03819247463 	-0.0319327785207 	8.602183551e-23
1.04439560901 	-0.0423674960492 	-2.51680264436e-23
1.0506868395 	-0.056679240596 	5.25740833535e-24
1.05538312881 	-0.0771961440962 	-1.88735058439e-22
1.054328611 	-0.107069751975 	3.65521885878e-23
1.03721662431 	-0.151212450781 	6.11791835454e-22
0.976179907771 	-0.206373711601 	1.16998215112e-20
0.817284138821 	-0.219439071686 	-1.99824757302e-21
0.667436364158 	-0.0140716033206 	-2.66773987185e-21
0.803106929353 	0.195672249335 	-3.90177465964e-21
0.95420246594 	0.195022597731 	1.35758770614e-20
1.01702742765 	0.150322719002 	-9.10771379819e-22
1.03881825041 	0.111981722823 	-7.0048575281e-23
1.04481672618 	0.0842892766291 	1.64760787785e-21
1.04422160387 	0.0638095277327 	6.30183454591e-22
1.04082462411 	0.0485541585344 	-2.44307273862e-22
1.03651566919 	0.0367935330451 	-2.53999158623e-22
1.03228082083 	0.0276349709448 	3.59790727864e-24
1.02864009577 	0.0202772858018 	6.00845077093e-22
1.02566516677 	0.0140762884218 	-6.36225535133e-22
1.02342079539 	0.00900355502899 	-6.4561014102e-22
1.02681045117 	-0.00762574016963 	7.29397255844e-24
1.0298091598 	-0.0117144614119 	2.8814714734e-23
1.03399882501 	-0.016620253018 	2.41670410528e-23
1.0396435462 	-0.0224552285258 	7.63989775811e-23
1.04696930449 	-0.0297008180984 	9.64624048727e-23
1.05632965429 	-0.0395509124816 	5.59802774032e-23
1.06788998155 	-0.0535798522956 	-4.48814517812e-22
1.0815276369 	-0.0749339991778 	-4.54746154185e-22
1.09621415264 	-0.109857503113 	7.77991840904e-22
1.10725613099 	-0.172543800554 	-1.72864729708e-21
1.09518713803 	-0.300560169784 	1.49937105826e-21
0.884204633686 	-0.605983350965 	4.23212546376e-22
0.851142037979 	0.561732720845 	1.56736951588e-21
1.05507658535 	0.292330270116 	-3.41502905576e-22
1.07757608522 	0.18074974951 	-2.36880519063e-22
1.07735372238 	0.123891021375 	-5.63471927952e-23
1.07105722199 	0.0893256007234 	3.38639310326e-22
1.06296296467 	0.0657583132405 	-1.00947651236e-22
1.05471328046 	0.0489574464985 	8.18523252831e-23
1.04713144595 	0.0364893568137 	1.29739485741e-22
1.04061478538 	0.0271431413671 	7.87276931158e-23
1.03534241118 	0.019749752122 	-1.00292704511e-22
1.03128133296 	0.0136786197509 	2.31229018881e-23
1.02829835292 	0.00869189994695 	-1.45595465757e-23
1.0307132139 	-0.00669282308019 	1.74308627889e-23
1.03411844349 	-0.010489986044 	-5.40202862259e-23
1.03894022864 	-0.0146108248987 	-5.72840862225e-23
1.04567324674 	-0.0194527318373 	1.60416283877e-24
1.05461752149 	-0.0253249675555 	-1.00819112973e-22
1.06678689445 	-0.0330048636931 	-7.18705473118e-24
1.08333063061 	-0.0437701044235 	-8.53766540379e-24
1.10619740282 	-0.060321974974 	4.2372230565e-23
1.13922109656 	-0.0884690070849 	-6.77786520423e-22
1.19016134326 	-0.140424340334 	-3.05539587012e-22
1.28798364634 	-0.241020122107 	2.56395243549e-22
0.0386713792679 	0.00137260680316 	-1.66845265493e-21
1.22360281153 	0.253836936619 	-1.90235646837e-22
1.15161566135 	0.166624798767 	2.42118515202e-22
1.11994854973 	0.116305273942 	5.93666236924e-22
1.09903401604 	0.0836665630043 	-1.62886700836e-22
1.08251570441 	0.0610851122742 	-1.72042873815e-24
1.06884706734 	0.0450275556384 	1.72592746393e-24
1.05763026894 	0.0333039914026 	2.08466027539e-23
1.04872723829 	0.0246006938665 	-2.45363930699e-26
1.04175654727 	0.0178259350677 	-2.59383937359e-23
1.03660976689 	0.0124254412209 	-3.3319402286e-23
1.0329315013 	0.00772611086023 	3.57722586299e-23
1.03393814574 	-0.00585066447129 	-4.25708166027e-24
1.03763828959 	-0.00873610304317 	7.62128130936e-23
1.04293550508 	-0.0120266341122 	3.50425044537e-23
1.05027049523 	-0.0155159527639 	1.58064779916e-23
1.06004434384 	-0.0194195328098 	1.79405976871e-22
1.07373089176 	-0.0237541224585 	2.70725747969e-22
1.09293085443 	-0.0288199510642 	-1.57896626118e-21
1.12126679037 	-0.0354843009914 	4.8907311079e-22
1.16518963637 	-0.0457451134688 	2.06655373252e-21
1.23762026718 	-0.0636306488874 	-1.26505428315e-20
1.34577320359 	-0.0891207117886 	3.43509546271e-20
0.132665962518 	-0.0512302687472 	1.77226729081e-21
-1.3098848685e-05 	-0.0164297056606 	-4.37646842312e-22
0.127011904055 	-0.00703895518054 	6.38616991244e-23
1.25657031739 	0.130393250017 	-2.58882234731e-20
1.19593455231 	0.119722978574 	7.83032600269e-21
1.15331424552 	0.092044047384 	7.29223383777e-22
1.12323875042 	0.0679787281317 	1.36422955765e-22
1.09978452278 	0.0497640980377 	9.62368545088e-22
1.08139122841 	0.0366119946902 	-1.62128035947e-22
1.0668305296 	0.027039966264 	-1.08676394188e-22
1.05575671483 	0.0199933960257 	-5.3875780366e-24
1.04730824193 	0.0145653605261 	2.75023673667e-23
1.04111407094 	0.0101038314178 	2.04289776045e-23
1.03679060652 	0.00650583266856 	7.07950207043e-24
1.03663995215 	-0.00469804070442 	2.51687824726e-23
1.04034778511 	-0.00686743837151 	-4.69425024563e-22
1.04582568114 	-0.00925732521096 	5.47356700387e-22
1.05323719138 	-0.0113871758708 	-4.47776946742e-24
1.06293137628 	-0.013241268724 	-4.32302030564e-22
1.07611015763 	-0.0141140245738 	-4.4422129844e-22
1.09443806977 	-0.0129932956989 	1.25650373613e-21
1.12145940155 	-0.00784158015977 	4.35974677804e-21
1.16377774706 	0.00378844505416 	1.13447254905e-21
1.23791659722 	0.0247074006092 	4.35151925588e-21
1.33364721081 	0.0580385559332 	3.97568865434e-21
0.461300682862 	-0.0610573197112 	-5.68886496121e-21
-0.162972700221 	-0.163295176348 	-3.45465111962e-21
0.102838363694 	-0.0753223473989 	-4.52884636628e-21
1.186434152 	0.060159797927 	-1.72222810009e-21
1.21250238231 	0.0795886391244 	-2.45825237679e-21
1.17493044445 	0.06182114718 	-8.7092969271e-23
1.14080959639 	0.045498049655 	-3.53569778425e-21
1.11272485935 	0.0332045256962 	-1.01655294663e-21
1.09065988809 	0.0245859933754 	2.48068439038e-22
1.07373323934 	0.0183525599463 	2.90434326401e-22
1.06097347864 	0.013746799034 	2.26059740456e-24
1.05146936333 	0.0102202763934 	-2.32252712567e-22
1.04452804962 	0.00709113544037 	1.72583607639e-22
1.0398736377 	0.00469364402588 	1.24700273155e-22
1.03875656387 	-0.00344815406063 	-3.46628790177e-22
1.04238113857 	-0.0050612286929 	-9.23701089722e-22
1.0476778017 	-0.00664654990026 	-6.34897760459e-22
1.05472065756 	-0.00775082807237 	9.17339454109e-23
1.06340776591 	-0.00809255236315 	-8.10609498892e-22
1.07463597807 	-0.00654644768464 	5.42798766033e-22
1.08858769214 	-0.000975436507327 	-1.35832533379e-21
1.10727405257 	0.0128573970525 	-8.90249105894e-23
1.13784023776 	0.044067820842 	-2.94357855171e-21
1.17772069703 	0.101835556168 	-3.68387078788e-21
1.24386450283 	0.21564284745 	8.41010234719e-21
0.66431167365 	0.277268898514 	1.55995437498e-20
-0.151852157562 	0.20405680481 	6.08525466984e-22
0.115905435284 	0.105037203516 	5.50137341589e-21
1.11889140124 	0.0564565009572 	-1.04027247328e-21
1.23481073581 	0.0487457633476 	-1.85695596315e-21
1.19187705106 	0.0281196310008 	-1.52393550021e-21
1.15108290614 	0.0177398520844 	2.90983842482e-22
1.11987254712 	0.0128884971886 	1.52272912538e-21
1.09584638264 	0.00987554169006 	-5.48423588214e-22
1.07723895941 	0.0080651463396 	7.66155287399e-22
1.06378167271 	0.00649331207722 	-7.70601968879e-23
1.05383512889 	0.00522303023258 	3.36081011923e-22
1.04667374577 	0.003779822375 	4.52304999825e-22
1.04189441279 	0.00270472179934 	3.46891149202e-23
1.04017543747 	-0.00230400631005 	9.77946579779e-22
1.04380126134 	-0.00336883053476 	8.2338131859e-22
1.04873648131 	-0.00438169401562 	-3.35642909446e-22
1.05526313142 	-0.00492941378467 	-1.36559889566e-22
1.06261945792 	-0.0046766472566 	4.39860901683e-22
1.07109091907 	-0.00248410297819 	1.62520372879e-22
1.07936912522 	0.00381348824748 	-2.14186407835e-22
1.08406516615 	0.0180939666818 	6.37408294139e-22
1.08910325437 	0.0507068966295 	2.11590658596e-20
1.08162719641 	0.120402374483 	1.87518852781e-21
1.06549511083 	0.268288941435 	5.32991730193e-22
0.606336596109 	0.4389992705 	3.1794829157e-21
-0.0337387613303 	0.509039769982 	-2.49054377057e-22
0.332486468348 	0.282146822585 	1.21705296348e-21
1.15653234197 	0.0333213237749 	-1.42102273026e-21
1.26727391211 	-0.00156275214898 	2.1276158897e-21
1.19917389846 	-0.0151817521777 	2.64678278486e-20
1.15270930944 	-0.0126323514413 	5.01778109682e-22
1.12078381856 	-0.0107075809461 	2.77096000496e-21
1.09519668904 	-0.00562957292398 	-2.83592557945e-22
1.07701717454 	-0.00276318813997 	-6.06118286514e-22
1.06386304901 	-0.000958275374437 	1.03433415876e-22
1.0541894451 	0.000143456386797 	2.46698221163e-22
1.04738588827 	0.000583582695215 	-4.35542255993e-22
1.04264224858 	0.000695411407625 	-3.22218634995e-22
1.04111689041 	-0.00118948716566 	-1.19124024521e-21
1.04469068655 	-0.00175882265039 	-4.76012815197e-22
1.04934624211 	-0.00240436822396 	-8.04204233515e-23
1.05548939572 	-0.00282604092011 	-3.23316982676e-22
1.06213181716 	-0.00292021074187 	2.59428553879e-22
1.06868145336 	-0.0014895976936 	-9.40918555803e-22
1.07081401397 	0.000265620415089 	-7.15505105748e-22
1.06790338696 	0.00781143234686 	-7.08158393208e-22
1.04887180296 	0.0258484325336 	1.50087294389e-21
0.999418831217 	0.0641908474759 	-5.47759702816e-23
0.887892866328 	0.170100371743 	-8.04276094419e-22
0.371672589058 	0.391831044607 	-3.94976292477e-22
0.122933333888 	0.388955372581 	-1.07434574974e-21
0.684243115034 	0.0780870343019 	5.25328570305e-21
1.23654799818 	-0.108977846026 	-3.80058664718e-21
1.28032821433 	-0.0969341441663 	1.70688766506e-21
1.18733813714 	-0.0711779182936 	4.02144300906e-21
1.1431065298 	-0.0479026299201 	-9.8058625987e-22
1.10992987855 	-0.0304756080502 	1.12899188522e-21
1.08850587288 	-0.0215978252458 	8.74038631081e-22
1.07338411887 	-0.012777083587 	-1.43409992247e-21
1.06125627522 	-0.00759483798123 	2.43672981173e-22
1.05257368445 	-0.00431659042515 	7.2060820508e-23
1.04660609444 	-0.00231013174255 	4.89524153701e-22
1.04235192082 	-0.00112248055021 	2.00712476271e-22
1.04139236586 	-0.000163016060948 	1.40739412248e-21
1.0451103281 	-8.72915803551e-05 	-2.70417486915e-21
1.04974297048 	-0.00046719516807 	1.51233270486e-21
1.05563759262 	-0.0002114466635 	6.32118058391e-24
1.06212423656 	-0.00185102348566 	1.74568718723e-21
1.06834901891 	-0.00359753732978 	-4.23164762642e-22
1.07181247601 	-0.00601440434702 	-9.72016238173e-22
1.0668432997 	-0.0122975551941 	4.50832087055e-23
1.04061128708 	-0.0202225629225 	7.26236068103e-23
0.973860668895 	-0.0345739321698 	-3.89873180902e-22
0.74616143808 	0.0289895464844 	3.2429300468e-21
0.289440381823 	0.11907189325 	3.21081232298e-23
0.389221848373 	-0.0745897684019 	-4.67867239768e-22
0.903904639309 	-0.288480728412 	1.53556028663e-22
1.21767675748 	-0.286230693847 	-1.07018059478e-20
1.21257877501 	-0.18976241525 	1.23377442391e-21
1.14556991733 	-0.117188593106 	1.34592048998e-21
1.11641502668 	-0.0755143829189 	1.35422807703e-22
1.09221445201 	-0.0476586708828 	-2.44990418425e-21
1.07646206286 	-0.0297015637126 	-6.77886467904e-22
1.06518722902 	-0.0195106988312 	1.76581827782e-21
1.05623530448 	-0.012614002157 	-1.05386127791e-24
1.04943946297 	-0.00740651061965 	-1.31453344828e-21
1.04461871401 	-0.00456091813479 	2.0394511074e-21
1.0410857026 	-0.00242171452632 	-4.96935658804e-23
1.04122190088 	0.00102354635761 	-1.01631454293e-21
1.04513928087 	0.00185879988961 	1.18406317983e-23
1.04930594485 	0.00252527611412 	2.7947302099e-21
1.05582640124 	0.00128333681917 	-1.22870974459e-21
1.06387741376 	-0.000113140041223 	1.66682638884e-21
1.07271056264 	-0.00280648079477 	-1.64307268966e-21
1.08093933325 	-0.011440716781 	1.75991359284e-22
1.08500891745 	-0.0265244335401 	3.98135048995e-24
1.07969664954 	-0.0660827008256 	-9.07857527289e-22
0.997984535714 	-0.131857818464 	1.24264946979e-21
0.660641549991 	-0.17269527141 	-1.25018007768e-21
0.428862299719 	-0.27017750809 	-5.00200339625e-22
0.573667403582 	-0.397938318447 	-2.92335143215e-22
0.91632572945 	-0.44627388446 	-2.44382772643e-21
1.09630917387 	-0.352319723313 	1.18718758592e-22
1.10228440814 	-0.222000169145 	-2.84189908415e-21
1.08375489574 	-0.137798927885 	2.20850501894e-21
1.07724935832 	-0.086692463648 	2.50109855035e-23
1.06849965452 	-0.0547186478406 	4.06601790744e-22
1.06165395978 	-0.0344921427527 	-2.51675476948e-21
1.05480916472 	-0.0218164109404 	1.98650289568e-21
1.04957609254 	-0.0138255120882 	-3.9755244564e-22
1.04516636009 	-0.00892845512502 	-2.6060744208e-21
1.04195969406 	-0.00599577654521 	-5.27660825594e-23
1.03923939522 	-0.00317896931931 	4.5454149614e-22
1.04011668753 	0.00244338396105 	8.19418600533e-22
1.04434007632 	0.00322892800138 	-4.32315651149e-22
1.04867829823 	0.00375585852643 	-2.55682796473e-22
1.05621443036 	0.00503580810033 	2.8216585762e-22
1.06515620924 	0.00447719352777 	2.33634828723e-22
1.07907961568 	0.00382319131052 	5.6930399174e-22
1.09374583505 	-0.00527704088066 	9.24331431059e-23
1.11769703801 	-0.0188008115418 	-1.46870802848e-23
1.149285096 	-0.0678098545528 	8.15806311707e-23
1.10091775749 	-0.132360411316 	8.63877431952e-23
0.767449688349 	-0.313641887088 	-3.23567068757e-22
0.53216018546 	-0.470735103988 	-3.66120878313e-22
0.61044822308 	-0.499038887627 	-3.80884360039e-22
0.851280992682 	-0.442823660032 	7.8393955549e-22
0.957792757124 	-0.326980061928 	8.72586939844e-22
0.997748593475 	-0.195358743109 	1.48694191453e-23
1.02044895072 	-0.12396072359 	-7.25942495032e-23
1.03885464048 	-0.078660879303 	4.52306477068e-24
1.04387220253 	-0.0487623197622 	1.11443457521e-22
1.04653828599 	-0.0316430341015 	6.57100117167e-22
1.04578533012 	-0.0202529534861 	2.14451494057e-22
1.04327691594 	-0.0129145022975 	1.16934928391e-22
1.04095726537 	-0.00841559956895 	-3.12328396757e-22
1.03928211183 	-0.00576200459003 	-7.51451490868e-22
1.03726962337 	-0.00324310730365 	-4.49265339751e-22
1.03872326785 	0.0035366291132 	-2.13947061789e-21
1.04189288691 	0.00486278254123 	6.99291128648e-22
1.04728697982 	0.00699262146654 	2.33036522776e-24
1.05485344227 	0.0087463519995 	4.76009632465e-23
1.06470274672 	0.0119544487786 	-3.56114902436e-22
1.0810886818 	0.0152199655273 	-1.74492098799e-22
1.10079426352 	0.0123690558804 	7.62399891171e-22
1.13839991139 	0.0204381273778 	2.98643200487e-23
1.21820911651 	-0.0022575625149 	3.51287218212e-23
1.2045617011 	-0.0345431672901 	-2.23997008092e-22
0.983429626022 	-0.146381728746 	-2.03135437204e-21
0.670817431399 	-0.355904870989 	9.64296444954e-24
0.591785611855 	-0.427761768442 	-2.79284344984e-22
0.710608005876 	-0.361963403489 	-4.40429796391e-23
0.839017880534 	-0.21870512063 	9.90509785442e-23
0.903682114315 	-0.131933129392 	-2.00417216766e-23
0.960354745981 	-0.075704721589 	9.96051638031e-24
1.00723543457 	-0.0494140172498 	2.2571372175e-23
1.02619412025 	-0.0310748792088 	2.64773572234e-22
1.03479828987 	-0.0211566281098 	-2.62695505285e-23
1.03909454139 	-0.0147428171915 	-1.75504559307e-22
1.03921513962 	-0.0100356144317 	3.85567239274e-23
1.03816376677 	-0.00686868675267 	1.64441581309e-23
1.03646451864 	-0.00462002632764 	5.18502292505e-22
1.03517543555 	-0.00328524061602 	1.09265218225e-22
1.0366191957 	0.00361938904285 	-4.21115913463e-22
1.03973640863 	0.00631151938616 	-4.5307323281e-22
1.04470060783 	0.00945590470296 	1.30077753708e-22
1.05067863237 	0.0131186263647 	-1.36153672738e-23
1.06027094151 	0.0192293368535 	1.32802548814e-22
1.07463373216 	0.0254428007045 	3.75199165888e-22
1.09335157913 	0.036601871737 	3.26187477225e-23
1.13256930003 	0.0533889099439 	-6.83270290325e-22
1.19663806878 	0.0835742767343 	9.00440154246e-22
1.21250485246 	0.124838448008 	5.6077723629e-22
1.09239620137 	0.119807286418 	-1.01948758077e-21
0.85656866739 	0.0190932022582 	0
0.668363162087 	-0.099547107175 	3.8026871807e-37
0.643526176637 	-0.143906196551 	6.02852405242e-26
0.729729771092 	-0.0999490847493 	2.96094557412e-22
0.846051687613 	-0.0368465290808 	-2.47980210487e-22
0.935763240396 	-0.0175502860629 	-2.53776287856e-22
0.988057332924 	-0.0126017449652 	3.30233586371e-22
1.01631207018 	-0.00804950043969 	-1.68469612445e-23
1.0289122276 	-0.00688344837959 	-6.93982944313e-23
1.03442992776 	-0.00628371981776 	6.52257759595e-23
1.0363567404 	-0.00512075614868 	4.2485268692e-23
1.0362583685 	-0.00406298126183 	1.02244082714e-22
1.0351510233 	-0.00306937065751 	-2.81658273995e-22
1.03395231077 	-0.00192927056307 	-2.68024876847e-22
1.03442026435 	0.00450464611791 	0
1.03692915964 	0.00740814129447 	0
1.04080994835 	0.0112205783864 	0
1.04540054072 	0.0162860506486 	0
1.0525562935 	0.0237111113427 	0
1.06280735606 	0.0344966969328 	0
1.07514104755 	0.0514412313032 	0
1.09870768916 	0.0773061338761 	0
1.13986994685 	0.125875844916 	0
1.15776186346 	0.20023630278 	0
1.08842802018 	0.256442829548 	0
0.922416985805 	0.244506306479 	0
0.749008986717 	0.187238724086 	0
0.679618190977 	0.127376053864 	0
0.718542766023 	0.101632675912 	0
0.830167285321 	0.096565864016 	0
0.941166823681 	0.0702972085588 	0
0.997058305277 	0.0385412910413 	0
1.02274289929 	0.0184419476103 	0
1.03360640695 	0.00804906996829 	0
1.03697381618 	0.00201698682397 	0
1.03753074831 	-0.000814562333065 	0
1.03662397532 	-0.00184578710529 	0
1.03499708467 	-0.00194760736555 	0
1.03342038594 	-0.00141310536581 	0
1.03189713819 	0.00465432763908 	0
1.0335640995 	0.00752023764609 	0
1.03606974739 	0.0114872925948 	0
1.03898878926 	0.0171536243961 	0
1.04289138726 	0.0250550371947 	0
1.04776832062 	0.037742504354 	0
1.05319164864 	0.0570454303441 	0
1.0604832843 	0.0851234893129 	0
1.07109122465 	0.13560497633 	0
1.07263578752 	0.215020525137 	0
1.03419007741 	0.300432605006 	0
0.91813041045 	0.347056462406 	0
0.781479324741 	0.343034340416 	0
0.725867888199 	0.307778823252 	0
0.760655708201 	0.265073525505 	0
0.876765505064 	0.211463881337 	0
0.994858607533 	0.142379645038 	0
1.04101666673 	0.0785950321091 	0
1.04890819736 	0.0379213087802 	0
1.04690584031 	0.0185891798766 	0
1.0438174864 	0.0073051501209 	0
1.04077181309 	0.00191741005121 	0
1.03768776119 	-0.000446369077261 	0
1.03503519399 	-0.00121391479244 	0
1.03292483021 	-0.00108053318028 	0
1.0294277004 	0.00412696656622 	0
1.03035674616 	0.0066207438856 	0
1.03150017409 	0.0100060338194 	0
1.03255240568 	0.0150538445802 	0
1.03290537355 	0.0224334673393 	0
1.03209271622 	0.0343472661502 	0
1.02950256877 	0.0533075023079 	0
1.02181286924 	0.0821789010021 	0
1.00759628965 	0.129566846478 	0
0.984440909538 	0.199455676264 	0
0.950702178015 	0.291700726072 	0
0.874950812519 	0.36608545469 	0
0.785817580568 	0.383566283731 	0
0.759105595999 	0.360066169122 	0
0.812781037455 	0.310744759486 	0
0.952190648989 	0.228836973032 	0
1.07606449655 	0.136117473664 	0
1.10138582573 	0.0688889909684 	0
1.08213052714 	0.0339589840268 	0
1.06348673519 	0.0167228926115 	0
1.05246224342 	0.00632772858086 	0
1.04477901037 	0.00187172770837 	0
1.03927206005 	-0.000424063148836 	0
1.03533129095 	-0.00113278064836 	0
1.03264660799 	-0.00107768304834 	0
1.02726952194 	0.00296716072534 	0
1.02764489176 	0.00467241722946 	0
1.02761439641 	0.00682497887623 	0
1.02667483871 	0.00997228986088 	0
1.02345649005 	0.0149689123854 	0
1.01679922027 	0.0229846368169 	0
1.00477758626 	0.0371800797313 	0
0.984001636977 	0.0606989632521 	0
0.952224384048 	0.0974887146146 	0
0.905856191846 	0.150871836575 	0
0.860795103934 	0.226278377183 	0
0.817414798953 	0.302935312616 	0
0.78237062547 	0.331385094978 	0
0.796490489983 	0.304121751714 	0
0.89251434836 	0.228359952319 	0
1.05380122225 	0.125600958042 	0
1.15419525959 	0.0504223364352 	0
1.14310602667 	0.0185934584813 	0
1.10209506345 	0.00903113514711 	0
1.07477008877 	0.00329689075001 	0
1.05854257091 	-0.000605431159187 	0
1.04752344348 	-0.00144103316326 	0
1.0405818026 	-0.00211995403579 	0
1.03558683224 	-0.00185905171744 	0
1.0324401561 	-0.00145473909929 	0
1.02598230329 	0.00136523820509 	0
1.02614135749 	0.00195368937838 	0
1.02562293657 	0.00240009024357 	0
1.02369189595 	0.00269372947841 	0
1.01865532461 	0.00302074529432 	0
1.00852162139 	0.00324586738544 	0
0.990021759092 	0.00508578982532 	0
0.960705705037 	0.0101264599903 	0
0.916458060194 	0.023290151792 	0
0.853378071412 	0.0489534516046 	0
0.798987805397 	0.0870732652665 	0
0.774423950696 	0.12697516478 	0
0.790655799732 	0.140339010229 	0
0.865521086455 	0.105883496067 	0
0.997314753204 	0.0289735016903 	0
1.13602460722 	-0.0381855560127 	0
1.18351896682 	-0.0503405770445 	0
1.14409075552 	-0.0342992454408 	0
1.10008192604 	-0.0203926156152 	0
1.07485705199 	-0.0136826397357 	0
1.05839884648 	-0.0100612952204 	0
1.04700019249 	-0.00689780531731 	0
1.04014562648 	-0.0051559921781 	0
1.0349311782 	-0.00340732001219 	0
1.0317162854 	-0.00223691901163 	0
1.02584343705 	-7.74755073461e-05 	0
1.02638691228 	-0.000572080543412 	0
1.02655714883 	-0.00190051352041 	0
1.02578248761 	-0.0046596716854 	0
1.02249553665 	-0.00982243301455 	0
1.0146268215 	-0.0191151768631 	0
0.997529829909 	-0.0342701587332 	0
0.965905369907 	-0.0558715729 	0
0.912237405516 	-0.073654920226 	0
0.839726064005 	-0.0810923390113 	0
0.785120451338 	-0.0825308263403 	0
0.771255224213 	-0.0906382900418 	0
0.81360918337 	-0.106064849663 	0
0.920346027056 	-0.130535858088 	0
1.04587059645 	-0.157497795995 	0
1.13636331779 	-0.150799456213 	0
1.15130433456 	-0.108325304052 	0
1.11469057679 	-0.0665336153542 	0
1.08305155727 	-0.0412063895831 	0
1.06526937873 	-0.0267902266742 	0
1.0522733287 	-0.0177981642562 	0
1.04291252474 	-0.011793691515 	0
1.03726544927 	-0.00802074214217 	0
1.03281237425 	-0.00506715502364 	0
1.03009984179 	-0.0031153979062 	0
1.0265619799 	-0.000884595044563 	0
1.02807039869 	-0.00202790952579 	0
1.02993821186 	-0.00457032425214 	0
1.03213064082 	-0.00936903198687 	0
1.0338134453 	-0.0179310427235 	0
1.03417846571 	-0.033346600288 	0
1.02779789988 	-0.0600232046757 	0
1.00091168994 	-0.102541061871 	0
0.94096007993 	-0.14786145488 	0
0.861019130702 	-0.182414390019 	0
0.806691457159 	-0.210142628779 	0
0.795502076762 	-0.238910885442 	0
0.831560596676 	-0.262241846893 	0
0.922128589119 	-0.268064020577 	0
1.01965985797 	-0.246322307085 	0
1.08189625376 	-0.19473027704 	0
1.09407005754 	-0.132019102331 	0
1.07521305496 	-0.0827875524151 	0
1.060167819 	-0.0529276810988 	0
1.05088896113 	-0.0341003062983 	0
1.04289627077 	-0.0218767024902 	0
1.03682771342 	-0.0142078462139 	0
1.03299179815 	-0.00930293532471 	0
1.029836718 	-0.00583783317497 	0
1.02790798902 	-0.00354007162368 	0
1.02759194962 	-0.0010510860819 	0
1.03024854071 	-0.00232105697129 	0
1.0340708952 	-0.00496539723125 	0
1.03950768437 	-0.00975581473918 	0
1.04701075222 	-0.0177734847057 	0
1.05760096836 	-0.0324918478572 	0
1.06790273464 	-0.0574306441761 	0
1.05401355953 	-0.103541217934 	0
0.992070715729 	-0.166554341647 	0
0.902040438216 	-0.222286152922 	0
0.840898448072 	-0.264741288524 	0
0.823737208492 	-0.296666294728 	0
0.841569990299 	-0.316405060513 	0
0.899712570263 	-0.311790429179 	0
0.964664786137 	-0.267799360819 	0
1.01294218832 	-0.200856350278 	0
1.03436780675 	-0.136455610674 	0
1.03401056989 	-0.0879423484618 	0
1.0341280086 	-0.056395109388 	0
1.03402068309 	-0.0351335307218 	0
1.03216182365 	-0.0217001808892 	0
1.03021204143 	-0.0135737554687 	0
1.02861815509 	-0.00855829925176 	0
1.02693505194 	-0.00527288344427 	0
1.02577114591 	-0.00314851161401 	0
1.02846373007 	-0.000701490586037 	0
1.03195700511 	-0.00153744192351 	0
1.03723737232 	-0.00305594056539 	0
1.04488422347 	-0.00587677568404 	0
1.05657284548 	-0.0101174866578 	0
1.07425331419 	-0.0183898126262 	0
1.09886810111 	-0.0309262779471 	0
1.10891040301 	-0.0585155159165 	0
1.06084665976 	-0.116262557572 	0
0.96027849021 	-0.189032855325 	0
0.879163052785 	-0.25099850744 	0
0.845761653967 	-0.287466677342 	0
0.84395052174 	-0.302036916744 	0
0.868755855806 	-0.28550075764 	0
0.902874252175 	-0.232590633944 	0
0.944895359485 	-0.169186562259 	0
0.979599216275 	-0.112828788506 	0
0.995148962323 	-0.0722693765055 	0
1.0074071269 	-0.0453406877913 	0
1.01658583309 	-0.0267718197766 	0
1.02160019793 	-0.0159054721892 	0
1.02404508544 	-0.00958019093904 	0
1.02483486832 	-0.00587903364557 	0
1.02459715359 	-0.00352243206723 	0
1.02412986 	-0.00206329019803 	0
1.02881861969 	0.000187157116461 	0
1.03255832444 	0.000283091383975 	0
1.03841132186 	0.000523765712091 	0
1.04674293807 	0.000496793623903 	0
1.05982849865 	0.00097818210509 	0
1.0791789376 	0.000901235794161 	0
1.10827924089 	0.00263849946299 	0
1.13864466864 	0.00331886660546 	0
1.12209985653 	-0.0170873504018 	0
1.03785742803 	-0.070116837802 	0
0.94088166129 	-0.138113179145 	0
0.874531771946 	-0.181541518328 	0
0.83965988775 	-0.191611697121 	0
0.832446677699 	-0.170490637894 	0
0.848706707713 	-0.129718212153 	0
0.890907197621 	-0.0888101064334 	0
0.93740351021 	-0.0512643669915 	0
0.966975859575 	-0.0275088165191 	0
0.988319339379 	-0.0148022430305 	0
1.00460069475 	-0.00730687098059 	0
1.01490390932 	-0.00411992229136 	0
1.02029807328 	-0.00249463850322 	0
1.02260570434 	-0.00166612352762 	0
1.02325968945 	-0.00104389277211 	0
1.02323521992 	-0.000672856886531 	0
1.02836181827 	0.00145360047234 	0
1.03181373988 	0.00255233231348 	0
1.03731591872 	0.00440425836032 	0
1.04491355517 	0.00695023345525 	0
1.0568192774 	0.0114338421334 	0
1.07356673203 	0.0182024758012 	0
1.09768344728 	0.0302576035526 	0
1.12904540938 	0.0514967030235 	0
1.13491264999 	0.0725884741775 	0
1.08566577293 	0.0694694371996 	0
0.997233581723 	0.0382575552417 	0
0.905569030699 	0.0125669206307 	0
0.839733383553 	0.00596302451001 	0
0.813379787482 	0.00940755242113 	0
0.823852468576 	0.0156582837767 	0
0.86521369074 	0.0238335808741 	0
0.917957265522 	0.0343334899029 	0
0.958649245597 	0.0353747928716 	0
0.986601269852 	0.0271608731836 	0
1.00563962485 	0.0176091622472 	0
1.01645888573 	0.010301672072 	0
1.02135830804 	0.00579148480657 	0
1.02314251754 	0.00307889362688 	0
1.0234945569 	0.00159100487063 	0
1.02330180545 	0.000738200360419 	0
1.02702408905 	0.00243601301693 	0
1.02977363307 	0.00421318598746 	0
1.03412385069 	0.00718339050595 	0
1.03989341356 	0.0116695944767 	0
1.04877649266 	0.019148267972 	0
1.06064410745 	0.030954945277 	0
1.07540101989 	0.0495451676627 	0
1.09478252823 	0.0807318892574 	0
1.10412556701 	0.122194876972 	0
1.07513257006 	0.155375807558 	0
1.00206693965 	0.170504898251 	0
0.912824507956 	0.17682440071 	0
0.846720090955 	0.174089915372 	0
0.822907577553 	0.160314375847 	0
0.832336337588 	0.142127306019 	0
0.869845254881 	0.12585864863 	0
0.925312612057 	0.111394535355 	0
0.973934975206 	0.0899167926607 	0
1.00568281819 	0.0610889822733 	0
1.02167730148 	0.0365389466919 	0
1.02686366279 	0.021203515238 	0
1.02755270171 	0.012116422833 	0
1.02670911538 	0.00676763890407 	0
1.0255246388 	0.00365623892524 	0
1.02443601533 	0.0018711943615 	0
1.02520835564 	0.00257963723964 	0
1.02699100808 	0.00457781457834 	0
1.02964822829 	0.00799933299337 	0
1.03278799182 	0.0134260642656 	0
1.03730412639 	0.0225675529526 	0
1.04284985561 	0.0373665533627 	0
1.04760813549 	0.0600391347178 	0
1.05322594577 	0.0939523341263 	0
1.05680528337 	0.139310962566 	0
1.03329002488 	0.189645102954 	0
0.972267412155 	0.22917093961 	0
0.901235719501 	0.251067806234 	0
0.855001525115 	0.251811728059 	0
0.844313036801 	0.236412838175 	0
0.857301674626 	0.213283377176 	0
0.895474841497 	0.184320175924 	0
0.954481962781 	0.152745032248 	0
1.00916067802 	0.112386995583 	0