1.01414187338 	-0.00816845042781 	-2.05486133802e-21
1.01533209176 	-0.0127848075775 	-1.55880152162e-21
1.01672601532 	-0.0179521817024 	5.68259165831e-22
1.01829723343 	-0.0240855678411 	-3.16933891632e-25
1.01966236001 	-0.0312606694758 	-6.29639824202e-22
1.02029280129 	-0.0398615807629 	-3.07546091994e-22
1.01913960543 	-0.0496193522807 	-3.49790490065e-22
1.01420454194 	-0.0590861144023 	-1.7036818816e-21
1.00398202916 	-0.0702157631185 	2.386317235e-20
0.984154595751 	-0.0751733802497 	1.72793223425e-21
0.956305461115 	-0.0684665439406 	3.85780449796e-23
0.928159232768 	-0.0420253474549 	2.05925951891e-21
0.916432891747 	0.00232424764623 	-3.02271367776e-24
0.931890466037 	0.045503492604 	2.43861094481e-22
0.962073210906 	0.0692054193503 	-1.43477231372e-21
0.989941896664 	0.0733743364195 	1.6385442331e-21
1.00852459753 	0.0667695197016 	1.52418144762e-20
1.01741263334 	0.0552068602647 	-1.15069899587e-21
1.02100660466 	0.0459015885552 	-1.06815267579e-21
1.02130754695 	0.0367882217789 	2.18419769755e-22
1.02009657506 	0.0289267473225 	4.2342259202e-22
1.01836991263 	0.0223610597849 	1.32734316689e-23
1.01660416158 	0.0167876356825 	-2.32265837488e-22
1.01512260319 	0.0120056607383 	4.74189409847e-22
1.01390913874 	0.00767568693525 	4.74688778082e-22
1.018709691 	-0.00868503213919 	7.2879645699e-22
1.02045468943 	-0.0135995440898 	1.44903219039e-21
1.02273757187 	-0.0194091744888 	9.39068981325e-22
1.02543220879 	-0.0263464815004 	-1.87473847258e-22
1.02829564012 	-0.0348035833068 	9.30618305466e-22
1.03061410811 	-0.0454067396421 	-4.08523119544e-22
1.03123246479 	-0.0584677657893 	7.32021099076e-22
1.0281847312 	-0.0747718730476 	2.32861356345e-22
1.01694755892 	-0.0938064373102 	-7.27813380305e-22
0.991665806525 	-0.111500274223 	-3.06833770502e-21
0.943913858816 	-0.117753030938 	-4.18937445405e-21
0.878506817895 	-0.0845157384751 	1.0407729659e-20
0.844860350014 	0.00417999023168 	1.6719665337e-22
0.886001809247 	0.089594277339 	9.31605830764e-21
0.953796989343 	0.116772327625 	-7.44951369253e-21
1.00011155701 	0.106090184186 	-1.66350942369e-21
1.02267080573 	0.0865582146053 	-3.52338540899e-22
1.03096147361 	0.067521719758 	-1.95768023631e-22
1.03231394338 	0.052441474193 	-3.03017078574e-22
1.0306129067 	0.0407671842667 	1.68152754101e-22
1.02775824657 	0.0314899395623 	-4.34379650479e-22
1.02474272612 	0.0240791418341 	6.95313294154e-23
1.02204467381 	0.0179641644517 	-1.29656622673e-22
1.01983437996 	0.0127079771798 	-3.61749299602e-22
1.01817807626 	0.00815360449784 	-1.07863572646e-22
1.02339895873 	-0.00876410165723 	1.47011746489e-23
1.02589269404 	-0.0136128829327 	6.87458240023e-22
1.02922189398 	-0.0196992967844 	-6.44842179579e-22
1.03336555008 	-0.0270193491011 	-3.59291393452e-24
1.0383005402 	-0.0362227333829 	2.85975657092e-22
1.04347713794 	-0.0483052370553 	2.79770464143e-22
1.04785051029 	-0.0643312906727 	-5.95832222913e-22
1.04932857145 	-0.0860718250438 	-1.50987275986e-21
1.04370534474 	-0.115615557489 	-1.56366327189e-22
1.02133502487 	-0.156205523702 	1.19890523278e-21
0.956248040101 	-0.202352563221 	1.66994885539e-20
0.801377672801 	-0.201973054455 	-2.09365021706e-21
0.667668044883 	0.010991223738 	-2.65332244779e-21
0.819357302938 	0.212830048999 	-3.56292333868e-21
0.974271441091 	0.198737779228 	8.94841658371e-21
1.03295134999 	0.145078687875 	-3.77401482178e-22
1.04940832846 	0.103225239888 	1.84892978581e-23
1.05078578724 	0.0752464549356 	-8.91686940507e-23
1.04695055192 	0.0560405581642 	-1.41072459295e-22
1.0416478456 	0.0425306027029 	8.01064681805e-23
1.03632007219 	0.0324464179092 	-3.9337598171e-23
1.03163211827 	0.0246344527727 	-1.49385073156e-24
1.02780233886 	0.0182904410612 	-1.64697167246e-23
1.02478782114 	0.0128499649612 	-4.02068263291e-23
1.02257807823 	0.00830172098026 	-7.49601463222e-23
1.02805365901 	-0.0082400520366 	6.49861694664e-23
1.03127819782 	-0.0128735038251 	-2.53945126633e-23
1.03571343397 	-0.0186274820167 	1.10312584432e-22
1.04157210173 	-0.0257041889841 	-9.45263896998e-23
1.0489171985 	-0.0347557657344 	-1.30981485513e-22
1.05771082827 	-0.0471710153206 	-9.82094845702e-23
1.06749824625 	-0.0644523785391 	1.12490395605e-22
1.077290623 	-0.0892734641883 	-2.49387781119e-22
1.08492647036 	-0.126484570911 	1.57361663571e-24
1.08492911109 	-0.187146231604 	-2.97167937738e-22
1.05923538843 	-0.303277853953 	-9.418568828e-23
0.842641164383 	-0.576177320582 	-2.52926430802e-21
0.893137137939 	0.590657239073 	1.9770641878e-22
1.09101849133 	0.289134630219 	-2.07596610302e-21
1.09986691063 	0.165810994689 	-2.28013214306e-21
1.08851838847 	0.106988615518 	-6.78163822423e-22
1.07515374476 	0.074785806402 	9.2019103883e-22
1.06319349735 	0.0547602048769 	4.96069780468e-22
1.05319781175 	0.0412593967637 	-8.7355752581e-23
1.04507257006 	0.031383133831 	-1.54126990528e-22
1.03859739249 	0.0238591906233 	-1.08256440683e-22
1.03354996487 	0.0177154563508 	-6.30728234923e-24
1.02974045121 	0.0124889537364 	-4.23731454523e-23
1.02699157343 	0.00805997377287 	7.93233469019e-24
1.03234369333 	-0.0070778581823 	-3.98640293275e-23
1.03620515125 	-0.0113073734114 	4.2394693036e-23
1.04165925048 	-0.0161595656036 	3.32163032572e-23
1.04919024818 	-0.0222650930062 	-6.91448526378e-26
1.05897216848 	-0.0301867256946 	-1.80232004604e-23
1.07165200331 	-0.0412151766575 	-2.06590071324e-24
1.08757650097 	-0.0570083803418 	-4.12979379282e-24
1.10713316797 	-0.0803656597544 	2.08355493204e-23
1.13142711162 	-0.116137822534 	-3.82481872737e-22
1.16479789345 	-0.172809520624 	-1.79648474636e-22
1.23361565429 	-0.268034966568 	1.80091159715e-22
0.0449787897099 	0.00144772387423 	-2.1600896285e-21
1.27777207808 	0.226627605569 	-2.7738435854e-22
1.17696620975 	0.133868199797 	3.92503162084e-22
1.12753739961 	0.088276907142 	1.11253136371e-21
1.09785960156 	0.0634129845562 	-3.37722125837e-22
1.07803184416 	0.0477619682869 	-4.10118705885e-24
1.06381001313 	0.0367890469463 	9.23207241989e-24
1.0531548299 	0.0284288982042 	1.10688504656e-22
1.04511578447 	0.0217906590807 	-3.54708970587e-25
1.03896023314 	0.0162831959447 	7.93495130455e-23
1.03444825815 	0.0116119219378 	7.75215899657e-23
1.03122696746 	0.00733816997486 	-3.65282007287e-23
1.03574284261 	-0.00579358410839 	2.1481050186e-24
1.04012817966 	-0.00878819061945 	-3.19773177296e-23
1.04646157887 	-0.0124781847649 	-3.24784991534e-23
1.0552650917 	-0.0168746695409 	7.69368835878e-24
1.06703253343 	-0.0225493308852 	7.90698772715e-23
1.08306539495 	-0.030456990529 	1.66694823875e-22
1.10430320779 	-0.0419397066447 	-9.89590503165e-22
1.13247624844 	-0.0592947242671 	4.27136189024e-22
1.16979134191 	-0.0856230372856 	1.38528583476e-21
1.22042971046 	-0.122917167264 	-8.58488711248e-21
1.27591718416 	-0.153640109301 	2.31011395794e-20
0.075280392963 	-0.0142888133882 	1.21637608167e-21
-0.000693148614995 	0.0129118927647 	-4.39370367242e-22
0.195003503342 	0.0340056384479 	-5.55009735562e-23
1.326575463 	0.0659319401129 	-3.86450187687e-20
1.21322381949 	0.0597288665342 	1.18276460965e-20
1.14829371123 	0.0516561428128 	1.09440627324e-21
1.1115854463 	0.0439942875096 	3.97194068749e-22
1.08808500014 	0.0366998711171 	1.61897329208e-21
1.07184873481 	0.0299862142337 	-2.81729605964e-22
1.05972341986 	0.0239654781384 	-2.57280391468e-22
1.05066864256 	0.0186727029548 	-1.15739571429e-23
1.04371061699 	0.0141394832917 	-5.401301256e-23
1.03856310322 	0.0100679839714 	-1.07380623808e-22
1.03492340873 	0.00658293499902 	-2.04806723313e-22
1.03831857081 	-0.00398171556391 	-1.47034653671e-23
1.0428180864 	-0.00576898264966 	-1.21986541886e-22
1.04963344538 	-0.00800707372667 	1.89966487801e-22
1.05907368207 	-0.0102267271827 	-1.89415737779e-24
1.07203105271 	-0.0128852269228 	-2.83427169847e-22
1.08990734546 	-0.0162782760781 	-3.12634367826e-22
1.11448603449 	-0.0211548603305 	9.47112575525e-22
1.14833450086 	-0.029038512725 	3.53861841976e-21
1.19434466845 	-0.0424862947215 	8.40567906275e-22
1.25474318898 	-0.0670786342141 	3.27176364479e-21
1.25061360019 	-0.0845447069396 	2.15722366258e-21
0.17075848348 	-0.1041267004 	-3.08342483317e-21
-0.196996825169 	-0.10133519822 	-3.35297063238e-21
0.453098186401 	-0.0994397967828 	-8.64171790641e-21
1.27220217291 	-0.0810849277889 	-3.15737765821e-21
1.19557133089 	-0.0142021101639 	-3.49306916729e-21
1.14335512471 	0.0147623088351 	-1.32363257235e-22
1.11312667508 	0.0243763012785 	-4.56727651035e-21
1.09228738128 	0.0253049770013 	-1.42233376774e-21
1.07666657809 	0.0226113152854 	3.72380948143e-22
1.06455025159 	0.0188307074653 	4.68271643776e-22
1.05506392103 	0.0149516993527 	5.64618134969e-24
1.04759967545 	0.0114892983257 	-6.63167199365e-22
1.04198641453 	0.00815015021269 	5.95048807579e-22
1.03813611582 	0.00538641045404 	5.34768156002e-22
1.03990794588 	-0.0021410988874 	-1.17338213158e-22
1.04427752211 	-0.00275581145632 	-3.99344252598e-22
1.0509256188 	-0.00335960348156 	-2.74285434141e-22
1.06018890039 	-0.0033172458036 	5.9695297719e-23
1.07296910593 	-0.00255801127336 	-6.44160332265e-22
1.09095445005 	-0.000671863531735 	4.7479586074e-22
1.11584912127 	0.00228836096301 	-1.2006491298e-21
1.15072545208 	0.00697015418149 	-9.3939309736e-23
1.20518624023 	0.00996922759927 	-2.88856431077e-21
1.27992084287 	0.00702297774194 	-3.47188468987e-21
1.25738904291 	-0.0100209181127 	6.86217951018e-21
0.383996936703 	-0.213178319598 	8.87768805777e-21
-0.18268313978 	-0.411083603165 	5.32994385998e-22
0.440315006008 	-0.352309858655 	1.02537236112e-20
1.12403800134 	-0.17267592972 	-1.98095740362e-21
1.13070083035 	-0.0506278816494 	-2.22500555823e-21
1.12155298537 	-0.00625405054496 	-1.65846984267e-21
1.10630295045 	0.0124840769762 	2.82639319076e-22
1.09228992815 	0.0167806325536 	1.7979743947e-21
1.07948278668 	0.0160863618076 	-6.59621598323e-22
1.06768896474 	0.0137206254341 	1.02426136354e-21
1.05830377526 	0.0109568841475 	-1.23470397164e-22
1.05056318179 	0.00851353159307 	7.8920105539e-22
1.04472500116 	0.00607082929368 	9.96090310968e-22
1.04069126866 	0.0040067126224 	-3.28385290619e-23
1.04035549065 	-0.00053100574926 	3.77882471428e-22
1.04449474964 	-0.000156285997319 	3.93815562195e-22
1.05036912461 	0.000775197016103 	-2.25318416446e-22
1.05866274892 	0.00281439994878 	-8.36040628511e-23
1.06992204877 	0.00677949543434 	2.95160878067e-22
1.08554990666 	0.0133476518015 	1.57285681829e-22
1.10818176397 	0.0253559625764 	-2.37339664968e-22
1.13767314162 	0.0398041632422 	8.14030668217e-22
1.1872484632 	0.0670581687988 	3.05587341152e-20
1.27305657629 	0.10276593929 	2.9474365471e-21
1.27891455441 	0.137384865286 	1.25803423095e-21
0.692906706394 	-0.0192878094595 	5.90636977011e-21
-0.0170086388928 	-0.308979340393 	-4.6286479919e-22
0.21368952984 	-0.343481740487 	1.42304991749e-21
0.944467959196 	-0.11794822891 	-4.97423254402e-22
1.07039144891 	-0.021085013828 	1.09423093288e-21
1.0972020792 	0.00433165873966 	1.64740518729e-20
1.09883037451 	0.0115498820219 	3.62416069451e-22
1.09226011931 	0.0118422907237 	2.4952459039e-21
1.08096538977 	0.0106208317909 	-3.08470242464e-22
1.06989675158 	0.00872504298248 	-8.55833688999e-22
1.06053757323 	0.00677679203023 	1.76883660169e-22
1.05257606299 	0.00529031623482 	3.85034679033e-22
1.04667400635 	0.00379274002311 	-8.82295012791e-22
1.04241230593 	0.00245251485348 	-7.72697165314e-22
1.04000279695 	0.000770676090917 	-5.57791593571e-22
1.04355966938 	0.00184854632963 	-2.42470197727e-22
1.04833618962 	0.00377677647424 	-4.39564639446e-23
1.05504640387 	0.00720738282148 	-2.34226550995e-22
1.06397109254 	0.0135498904471 	2.74070753342e-22
1.07529667806 	0.024057381808 	-8.84662025448e-22
1.08871259892 	0.038805920902 	-8.41063252208e-22
1.11013565774 	0.0668453459188 	-1.27727397923e-21
1.13936907348 	0.111779158586 	4.06548732712e-21
1.19370690999 	0.189770693136 	7.15665377103e-22
1.22131364887 	0.307286497817 	-8.03630472057e-21
0.88314886869 	0.339282188535 	-6.38505641609e-21
0.254405243203 	0.161227225389 	-1.12775789329e-21
0.161770281019 	-0.0377682426614 	-8.05104546584e-22
0.803295650571 	0.014923383598 	4.82034796114e-22
1.05912384221 	0.0523143017822 	-8.30955691192e-23
1.09843957962 	0.0273529119456 	1.08955113567e-21
1.1026602962 	0.015411594814 	-4.89067868685e-22
1.09408102766 	0.00932394886836 	1.04413732608e-21
1.08284529133 	0.00378996817794 	1.00262649601e-21
1.07193902359 	0.00338726782338 	-1.58022863743e-21
1.06185573834 	0.00230559799407 	3.55290586141e-22
1.05357926825 	0.00183721829423 	1.19380830014e-22
1.04765555764 	0.00118173850277 	9.53903840369e-22
1.04335144759 	0.000732802085396 	4.40659467755e-22
1.03909552773 	0.00148572140667 	6.64283724597e-22
1.04188515143 	0.0030034497983 	-1.51669520814e-21
1.04545804478 	0.00535316917112 	9.76673952423e-22
1.05031244787 	0.0092874541378 	5.45647816553e-24
1.05532778951 	0.0156537615752 	1.74906628109e-21
1.06054369444 	0.0256458380649 	-4.25026496472e-22
1.06715836296 	0.0440100862987 	-1.67823141468e-21
1.07194704872 	0.0745050722185 	8.76494015142e-23
1.07515733956 	0.12549320109 	1.16503886844e-21
1.0789990964 	0.21198915757 	1.03167509403e-21
1.08666633602 	0.36178204618 	-6.62827770874e-21
0.873518122145 	0.472235419435 	8.94357299965e-23
0.427924452064 	0.462404953317 	-3.5495083351e-22
0.316138228124 	0.335157848936 	6.86437812985e-23
0.781286312695 	0.16748157537 	1.4418496492e-21
1.11174327542 	0.104825615336 	-3.44800707387e-22
1.1353817193 	0.0386085947299 	3.78941209128e-22
1.11691206398 	0.0136993622127 	9.94366812969e-23
1.1012112328 	0.00141644683301 	-1.79981707384e-21
1.08477322435 	-0.00109561239684 	-7.24617633446e-22
1.07233997021 	-0.00274998041643 	1.90982702239e-21
1.06168837978 	-0.00336494835378 	-1.54147580589e-24
1.05350617775 	-0.00192183948327 	-2.08214426315e-21
1.04771533302 	-0.00164029766116 	3.58661272134e-21
1.04330482839 	-0.000768860208886 	-1.25828755547e-22
1.03796540595 	0.00175982734507 	-4.94093979378e-22
1.04024747694 	0.00312986070024 	-2.37032041194e-23
1.04266544297 	0.00518896819232 	1.73406383697e-21
1.04512452784 	0.00805684684385 	-9.33814359344e-22
1.04710163751 	0.0131732724093 	1.49237904248e-21
1.04867169318 	0.0218841111493 	-1.68319670726e-21
1.04468294808 	0.036892540296 	1.87945521427e-22
1.03633510307 	0.060959607497 	-1.11363445782e-23
1.01116047971 	0.104153697257 	8.98265985253e-22
0.971523868427 	0.17618154461 	-1.14241659933e-21
0.92264788004 	0.302279398706 	1.36610571185e-21
0.764770535699 	0.432653543479 	1.23767615489e-21
0.456647474819 	0.534748708657 	-2.24508293981e-22
0.486851481612 	0.455953061341 	-1.39588446803e-21
0.932503586079 	0.186663390995 	1.11453339675e-22
1.20332252434 	0.0677640108897 	-1.72996135502e-21
1.18747373049 	0.0112420823737 	1.46706724498e-21
1.1323620579 	-0.0073177663382 	1.31511123553e-23
1.10707713502 	-0.0124580421434 	4.06746219702e-22
1.08497276159 	-0.0121389125649 	-2.80767293546e-21
1.07116815572 	-0.00962512866863 	2.41664191117e-21
1.05978647744 	-0.00727214084866 	-3.87278497818e-22
1.05146431288 	-0.00635353065211 	-4.15146568606e-21
1.04677710959 	-0.00441360546569 	-1.05733973437e-22
1.04240465605 	-0.00235981723798 	8.47886957442e-22
1.03683907829 	0.00183210368362 	3.32278160549e-22
1.03873873461 	0.00293245088675 	-2.00293171624e-22
1.04026740716 	0.00379943128411 	-1.54110888774e-22
1.04218223393 	0.00562610418176 	9.43117047615e-23
1.04304627982 	0.00840737412716 	1.16646189565e-22
1.04020444814 	0.012689607027 	3.70201734705e-22
1.03117603396 	0.018728183526 	9.11822523897e-23
1.01252323391 	0.0305399485066 	1.03509040112e-22
0.966837703985 	0.0537014176548 	-3.56123477909e-23
0.903214414906 	0.0954717483603 	-1.1660691368e-22
0.793721153076 	0.170293884685 	1.17756139774e-22
0.592970075136 	0.336132831478 	7.76350263573e-23
0.498030388523 	0.341469336382 	-6.76500708629e-22
0.734671893279 	0.159596679419 	2.18820355491e-21
1.11715803272 	-0.0409943190877 	2.47328586221e-21
1.24673172166 	-0.0635987683179 	2.82524671279e-22
1.20017899578 	-0.0528810240593 	-5.3575568825e-23
1.13139222703 	-0.0428554112019 	-1.43223829607e-22
1.10316706904 	-0.0311379666206 	1.19561203203e-22
1.08156849472 	-0.0248953606012 	9.4572860929e-22
1.06679385015 	-0.017086340269 	3.93638252127e-22
1.05653016204 	-0.0125799957429 	3.12227735763e-22
1.04888842777 	-0.00838116976781 	-4.88200032567e-22
1.04468256426 	-0.00615690809591 	-1.35276643455e-21
1.04043850292 	-0.00388352394383 	-9.3051054095e-22
1.03587545183 	0.00178447226325 	-6.55887410066e-22
1.03745883787 	0.00219199036393 	2.12008684584e-22
1.03989225461 	0.00257305989715 	3.01427707441e-23
1.04165949172 	0.002836114481 	2.18572260133e-23
1.04223761871 	0.00232733069841 	4.14923351617e-23
1.04040056055 	0.000161768790871 	2.19766292071e-22
1.03297332354 	-0.00542020595467 	-3.25697754292e-22
1.01135132868 	-0.0117607270668 	7.38714672275e-24
0.958628281985 	-0.0259111477262 	-3.40826062746e-23
0.852456354693 	-0.0338566840481 	1.61829651501e-23
0.675945654808 	0.0325863364006 	5.85323960079e-22
0.57679071442 	0.0494821282701 	6.7812944048e-25
0.648445880721 	-0.0568604674895 	-4.93692867265e-22
0.900389268058 	-0.193233673674 	1.78560301453e-21
1.13263776173 	-0.23521438111 	5.95495504102e-22
1.21097330386 	-0.188319269466 	9.46934190769e-24
1.16248524935 	-0.113285260219 	3.49794986746e-23
1.1065361519 	-0.0760622660648 	4.94259307176e-23
1.0872128994 	-0.0502193722983 	1.35081170788e-21
1.07159370626 	-0.0345901864719 	-4.09177533713e-22
1.05918917952 	-0.0233168324224 	-5.72413962422e-22
1.05174037308 	-0.0159738272543 	7.7117470141e-23
1.04524957842 	-0.0110615142135 	-1.59523136902e-23
1.04080233158 	-0.00735409764044 	1.17670377658e-21
1.03791994468 	-0.0049182876114 	2.18565293574e-22
1.0353336228 	0.0010309744834 	-6.9090852814e-23
1.03775016001 	0.00164372611668 	-7.12876224764e-23
1.04071915931 	0.0014552331104 	4.6795177271e-23
1.04350135393 	0.000112510602268 	5.35162761206e-23
1.04604321823 	-0.00345386333874 	7.26180524341e-24
1.04732087259 	-0.0108343304083 	-2.79769589147e-22
1.04456099977 	-0.0232516642941 	-3.69025881678e-23
1.03383632526 	-0.0534231411788 	6.25419847673e-22
0.989526824315 	-0.103142823554 	-4.42102894733e-22
0.857942206466 	-0.160611007348 	-4.21927405848e-22
0.708571007524 	-0.215026802463 	5.15490279631e-22
0.66071053944 	-0.276212317126 	0
0.750749695229 	-0.333379008147 	-2.27006427409e-35
0.929799195502 	-0.353900495185 	-3.59880695586e-24
1.06889440743 	-0.312649143213 	-7.77062896577e-22
1.11010224912 	-0.221963165013 	4.69734200091e-22
1.09322345588 	-0.137739314271 	6.78264359818e-22
1.07273953339 	-0.0864452627307 	-7.2805848776e-22
1.06291104988 	-0.0578674800174 	4.71746035541e-23
1.05550912503 	-0.0385590955457 	5.70560681834e-22
1.04897317625 	-0.0258386997592 	2.12844750475e-22
1.04420178717 	-0.0178223244174 	-1.83724434321e-23
1.04049573284 	-0.0119097606506 	2.20548277068e-22
1.03737745656 	-0.00771342830497 	-7.62786185163e-22
1.03517060191 	-0.00454870651433 	-7.1428734924e-22
1.03485682702 	0.0012315874831 	0
1.03768875164 	0.00172376197596 	0
1.0415257709 	0.00142218063184 	0
1.04654111378 	-0.000186549961494 	0
1.05291487961 	-0.00415771778837 	0
1.06094016266 	-0.013693666691 	0
1.07290932679 	-0.0293655333157 	0
1.08675710806 	-0.0669172878083 	0
1.0637356602 	-0.134655502321 	0
0.93203154594 	-0.230563023877 	0
0.769140041291 	-0.323100836336 	0
0.703673149413 	-0.382559567815 	0
0.757278113736 	-0.40901751745 	0
0.892145632741 	-0.386302017716 	0
0.99235797493 	-0.308613079836 	0
1.02191316236 	-0.210225051407 	0
1.03105766512 	-0.132387323033 	0
1.03796952152 	-0.0846867309534 	0
1.04117695199 	-0.0563972515684 	0
1.04046788434 	-0.037102842785 	0
1.03939990092 	-0.0246729684862 	0
1.0378038656 	-0.0169289991902 	0
1.03586890665 	-0.0112939356832 	0
1.03418354719 	-0.00739831808698 	0
1.03277907871 	-0.00450863829844 	0
1.03423256487 	0.00177002434073 	0
1.03739108813 	0.00239534386857 	0
1.04201804311 	0.00275196252064 	0
1.0485371959 	0.0020040151953 	0
1.05841062184 	0.000886168186359 	0
1.07248647085 	-0.00501268920128 	0
1.09672462428 	-0.0140599616225 	0
1.13558171294 	-0.0326129477918 	0
1.15148585996 	-0.0757012903991 	0
1.0427294447 	-0.165863369598 	0
0.851788770071 	-0.284151611952 	0
0.740967153453 	-0.366042122914 	0
0.74477730036 	-0.392278844284 	0
0.819871811939 	-0.357088113844 	0
0.891476841783 	-0.266015550845 	0
0.934853008787 	-0.173788918098 	0
0.973214013624 	-0.111799433855 	0
1.00221352789 	-0.0709175939892 	0
1.01897365894 	-0.0450156452113 	0
1.02643737831 	-0.0289790938876 	0
1.03055130768 	-0.0192430355494 	0
1.03204480158 	-0.0130224788933 	0
1.03186339069 	-0.00883229300631 	0
1.03130854238 	-0.00597570158475 	0
1.03056749282 	-0.00373397462752 	0
1.03339256568 	0.00253900272779 	0
1.0366147839 	0.00377778211234 	0
1.04167800353 	0.00539137968331 	0
1.04830542264 	0.0065070663503 	0
1.05952196201 	0.00916973656953 	0
1.0754299525 	0.0106281360843 	0
1.10092744952 	0.013726823521 	0
1.14762753833 	0.0212176298606 	0
1.19539090889 	0.0269729088061 	0
1.14258296974 	-0.000755402768301 	0
0.97235938117 	-0.0902436136979 	0
0.81683191576 	-0.189933501074 	0
0.750311458341 	-0.235214677916 	0
0.759924568961 	-0.216364187678 	0
0.804584356027 	-0.153945191887 	0
0.865569887447 	-0.0930632252417 	0
0.928128015668 	-0.0563135665006 	0
0.971924266545 	-0.0338582289746 	0
0.999890549284 	-0.0203846416714 	0
1.01567001899 	-0.0133929281901 	0
1.02401742971 	-0.00964535223381 	0
1.0279355706 	-0.00696566933265 	0
1.02914634691 	-0.00520736560329 	0
1.02924373691 	-0.00381402771658 	0
1.02881400605 	-0.00251273973323 	0
1.03196695452 	0.00332686857398 	0
1.03485495934 	0.00530932972166 	0
1.03959909263 	0.00821410685089 	0
1.04539831998 	0.0115685039852 	0
1.05538823245 	0.0172031103419 	0
1.06913011282 	0.0249387707643 	0
1.08842165327 	0.0374631807645 	0
1.12526572725 	0.0600871793438 	0
1.17342110615 	0.0982473932536 	0
1.16277612913 	0.137663477508 	0
1.05439943883 	0.128567153807 	0
0.901763451737 	0.0709932003551 	0
0.783038548353 	0.0271450207566 	0
0.746033068649 	0.0129510851737 	0
0.769868768808 	0.0210083734353 	0
0.834790634133 	0.035386982721 	0
0.912160603683 	0.036307036465 	0
0.964880682405 	0.0271946612837 	0
0.996611942435 	0.015704819964 	0
1.01443028984 	0.00761959865793 	0
1.02313776985 	0.00257272292773 	0
1.02711148039 	7.9453808204e-05 	0
1.02831840823 	-0.00107453139891 	0
1.0283409843 	-0.00135350066591 	0
1.02785404802 	-0.00109276870099 	0
1.02981430071 	0.00387214108942 	0
1.03200874637 	0.00632069532191 	0
1.03561583151 	0.00993565927845 	0
1.03987816639 	0.0147722544393 	0
1.04686882078 	0.022125954566 	0
1.0560691988 	0.0334929995243 	0
1.06739963163 	0.0508482237457 	0
1.08774239787 	0.0786352997392 	0
1.11528642357 	0.127344395907 	0
1.11031527209 	0.193841613485 	0
1.04493478976 	0.24315125754 	0
0.927077329217 	0.251012363973 	0
0.813009598536 	0.234984672016 	0
0.767369099039 	0.207165263873 	0
0.782048046603 	0.180973203286 	0
0.847470125974 	0.158719949137 	0
0.934308276106 	0.126145967956 	0
0.99216580017 	0.084280887262 	0
1.01852527747 	0.0474220659122 	0
1.02790400855 	0.0254244292544 	0
1.03065117337 	0.0127414802817 	0
1.03100720945 	0.00588857403565 	0
1.03008004063 	0.00230904031829 	0
1.02894815556 	0.000598119872726 	0
1.02786555242 	8.20915251831e-06 	0
1.02732748371 	0.00377896612828 	0
1.02866073178 	0.00619173578847 	0
1.03070867282 	0.00973275975356 	0
1.03289577006 	0.0148974155311 	0
1.03598029215 	0.0228979874786 	0
1.03954432288 	0.0359002927922 	0
1.04252430957 	0.0561149136763 	0
1.04675867382 	0.0867010110358 	0
1.05150585683 	0.136907330285 	0
1.03571918612 	0.205888104224 	0
0.989739877815 	0.278735318485 	0
0.908451487637 	0.322953827671 	0
0.827388843259 	0.324308758174 	0
0.798894354976 	0.300452872951 	0
0.8174014446 	0.266181264141 	0
0.889414773364 	0.223444145955 	0
0.986054631884 	0.166146571476 	0
1.04467659309 	0.102433281535 	0
1.0572690049 	0.0558223231983 	0
1.05037747596 	0.0305772578389 	0
1.04329889605 	0.0158697648036 	0
1.03792756091 	0.00801847803218 	0
1.03370670856 	0.00359328788771 	0
1.0306390688 	0.00134263033778 	0
1.02847972256 	0.000440633830392 	0
1.02520720096 	0.00282751865432 	0
1.02580992982 	0.00466514779324 	0
1.02639173503 	0.00742737326304 	0
1.02630392707 	0.0116992285843 	0
1.02513796008 	0.0187659389887 	0
1.02220615377 	0.0306751129593 	0
1.01579111951 	0.0505352691624 	0
1.00608043644 	0.0800377722206 	0
0.992560818691 	0.125250465781 	0
0.961002964827 	0.186773834911 	0
0.920949849461 	0.259703226638 	0
0.875238447429 	0.318112636301 	0
0.832744409483 	0.331474987724 	0
0.824429055518 	0.313062947918 	0
0.85671464429 	0.274320692402 	0
0.948572520638 	0.211060282218 	0
1.0571763072 	0.133347365528 	0
1.10302797421 	0.0699072067384 	0
1.09200365554 	0.0373635526451 	0
1.06946443756 	0.0210613610605 	0
1.05409233549 	0.0108902837976 	0
1.04389417948 	0.00573146502417 	0
1.03707468587 	0.00251345067598 	0
1.03229394926 	0.000907469320092 	0
1.02912691574 	0.000264069077201 	0
1.0239439626 	0.00135818777731 	0
1.02409800057 	0.00222515153968 	0
1.02367869862 	0.00355464959541 	0
1.02181026013 	0.00551500915871 	0
1.01718731244 	0.00898242928651 	0
1.00825923191 	0.0150423815963 	0
0.993315263036 	0.0268450407966 	0
0.972762591985 	0.0453045719369 	0
0.944273046176 	0.0758466323571 	0
0.898162631499 	0.120999952921 	0
0.855735161882 	0.173897486495 	0
0.834232739882 	0.227898634584 	0
0.830033631765 	0.252111873355 	0
0.854329780951 	0.236695681539 	0
0.920416746673 	0.183299764214 	0
1.0319945189 	0.104173051715 	0
1.12636459679 	0.0398279137948 	0
1.1396018358 	0.0104311990333 	0
1.10646610227 	0.00546196502275 	0
1.07736420046 	0.00327264686434 	0
1.05869513264 	0.00102799035357 	0
1.04632116619 	0.000368654814066 	0
1.0384947178 	-0.000286794746896 	0
1.03294205998 	-0.000362710817407 	0
1.02936643692 	-0.00035064022994 	0
1.02367152402 	-8.14649927421e-05 	0
1.02380514052 	-0.000392723055868 	0
1.0232777686 	-0.0010578064173 	0
1.02119340465 	-0.00249819903535 	0
1.01583704108 	-0.00488837851445 	0
1.00469567784 	-0.00880398632428 	0
0.985521024491 	-0.0130101834136 	0
0.957684355603 	-0.0152352485147 	0
0.916876758681 	-0.0079264988279 	0
0.861523755586 	0.0107009354757 	0
0.816890173395 	0.0299181419402 	0
0.804929872911 	0.0495828720032 	0
0.830906028444 	0.059862851043 	0
0.896956537619 	0.0469721768436 	0
0.994610356614 	0.00427592149856 	0
1.09667040041 	-0.0443500412595 	0
1.15065455144 	-0.0566528258501 	0
1.1369872591 	-0.0409836933548 	0
1.10002262268 	-0.0237736802735 	0
1.07431211421 	-0.0144159386989 	0
1.05709209864 	-0.00937193427914 	0
1.04516387062 	-0.0058591592749 	0
1.03768741714 	-0.00386840039522 	0
1.03226725191 	-0.00228789724733 	0
1.02889501812 	-0.00137324041077 	0
1.02431102816 	-0.00126933874549 	0
1.02505984095 	-0.00263463406435 	0
1.02563711063 	-0.0051748744136 	0
1.02551677 	-0.00970396336873 	0
1.02327377195 	-0.0174891026506 	0
1.01620887466 	-0.0307834682036 	0
0.999183337793 	-0.0519141168459 	0
0.967563989819 	-0.077089214569 	0
0.91745443068 	-0.0949613981452 	0
0.857786239531 	-0.104280144285 	0
0.816564705583 	-0.11489368494 	0
0.807708584756 	-0.129705542686 	0
0.839850050746 	-0.142340677157 	0
0.918712279227 	-0.149180301365 	0
1.01761203043 	-0.152845834592 	0
1.09624524243 	-0.145050730905 	0
1.12349106069 	-0.113222853831 	0
1.10637028112 	-0.0726671089475 	0
1.08096569774 	-0.044080029264 	0
1.06374243274 	-0.0276563680755 	0
1.05071844304 	-0.0174203037066 	0
1.04118857381 	-0.0108791884056 	0
1.0350986635 	-0.00689428104806 	0
1.03052433695 	-0.00412875928469 	0
1.02770594408 	-0.00243106474296 	0
1.02569503394 	-0.002024169299 	0
1.02760276013 	-0.00394039105528 	0
1.03016999901 	-0.00735729906558 	0
1.03346529286 	-0.0132014031801 	0
1.0370222245 	-0.0230882259156 	0
1.03933311004 	-0.0401811489813 	0
1.03168227525 	-0.0696131236733 	0
1.00075127638 	-0.111338644374 	0
0.944049781488 	-0.150777503139 	0
0.8802207479 	-0.181063723702 	0
0.840046470417 	-0.209029809148 	0
0.829731468364 	-0.234238262065 	0
0.849395311713 	-0.251736360595 	0
0.909448503558 	-0.251858634944 	0
0.990121818314 	-0.229606892121 	0
1.05413296585 	-0.188567748487 	0
1.07466564831 	-0.136564491379 	0
1.06532738752 	-0.089369765988 	0
1.05527375689 	-0.0564464350569 	0
1.04783677688 	-0.0354093138403 	0
1.0405782885 	-0.0217866586717 	0
1.03491205609 	-0.0133439322207 	0
1.03110610583 	-0.00821085758088 	0
1.02800430833 	-0.00487838025873 	0
1.02600580369 	-0.00283892033373 	0
1.02741446787 	-0.00201568868526 	0
1.03052126531 	-0.00378001398351 	0
1.03508111738 	-0.00674229093387 	0
1.04166085889 	-0.0117324549367 	0
1.05098370405 	-0.0198002104627 	0
1.06354363783 	-0.0339951170452 	0
1.0710602279 	-0.0584712345378 	0
1.0488600359 	-0.102839217711 	0
0.987673532949 	-0.157781739173 	0
0.915667448693 	-0.20417130432 	0
0.869307480902 	-0.241480368842 	0
0.851657913376 	-0.267000023083 	0
0.85637674893 	-0.281523886583 	0
0.892335798699 	-0.276998751819 	0
0.946463203768 	-0.24386958878 	0
0.997156508197 	-0.190529519946 	0
1.02163619904 	-0.133674572768 	0
1.02402373364 	-0.0893351434881 	0
1.02660559271 	-0.0574917482947 	0
1.02864382598 	-0.0350267321164 	0
1.02832437196 	-0.0208137454471 	0
1.02744855695 	-0.0122915214686 	0
1.02646078102 	-0.00728883951654 	0
1.02514849798 	-0.00417692958599 	0
1.02413313549 	-0.00234702787208 	0
1.02874550001 	-0.00121523779406 	0
1.03255082653 	-0.00220072602899 	0
1.03836965073 	-0.0037192518717 	0
1.04691468133 	-0.00633755460373 	0
1.0598193802 	-0.0101237654504 	0
1.07875663945 	-0.0170759574411 	0
1.1003528239 	-0.0277761026045 	0
1.0993457318 	-0.0545523285183 	0
1.04678889932 	-0.105581788726 	0
0.964765851109 	-0.16517718856 	0
0.902422248233 	-0.216195330154 	0
0.869085854598 	-0.244630027204 	0
0.857146392694 	-0.253864669837 	0
0.869874097096 	-0.240576091752 	0
0.898350914863 	-0.200055224213 	0
0.938900065877 	-0.148355631258 	0
0.972850874931 	-0.0991558744374 	0
0.988490897009 	-0.0639109653635 	0